72
Lattice="12.39778545 0.0 0.0 -6.19889272 10.73679715 0.0 0.0 0.0 13.44794642" Properties=species:S:1:pos:R:3:forces:R:3 ref_energy_eV=-265.82906585 ref_gap_eV=2.1779 energy=-239.19651587 stress="-0.014875982298442987 -0.0012020530913990977 -0.00024005983173562486 -0.0012020530913990977 -0.0028065682469856196 -0.0018703251258926374 -0.00024005983173562486 -0.0018703251258926374 -0.008512485922550795" free_energy=-239.19651587 pbc="T T T"
Cd      -0.05839320       2.32894551       0.02568410       0.17550681       0.14381073      -0.22883089
Cd       4.13540042       2.32711714       0.02957217      -0.07447253       0.14122545      -0.30530643
Cd       8.28991636       2.60348713      13.43536385       0.01367226      -1.55589050       0.26361368
Cd      -2.04049652       5.92768231      13.27047522       0.12855759       0.58085721       0.80482553
Cd       1.93522817       5.85667536      13.32248367       0.78104200       1.16460849       0.89008061
Cd       6.10318461       5.86807655      13.29126588       0.50127223       1.07832459       0.87946807
Cd      -4.02890871       9.51707123       0.06623436      -0.67527190       0.32788080      -1.26675714
Cd      -0.18475241       9.60928678       0.06071116       1.07726142      -0.09519408      -1.19804903
Cd       4.13118245       9.53191818       0.00564209      -0.86549312       0.36124508       0.16253763
Cd       0.03868952       2.35849726       6.72231037      -0.11478817       0.84543994       0.53400983
Cd       4.12567857       2.37071799       6.67813346      -0.21821431       0.00538080       0.15245040
Cd       8.34256046       2.38320563       6.93324625       0.06031620      -0.07239018      -1.29569811
Cd      -2.00817128       5.89769379       6.68008288      -0.55656313       0.38814277      -0.22734515
Cd       1.98772467       5.92951562       6.50319612       3.28380403       1.27968332       1.54788123
Cd       6.31647990       5.88290954       6.83723787      -0.74030174       0.41426683      -1.69373268
Cd      -4.01831591       9.65285800       6.84272691      -0.35117793      -0.58996701      -0.11980640
Cd       0.00838810       9.53898288       6.71568685       0.86924496       1.11877347       0.58027268
Cd       4.26919602       9.41477703       6.62826108      -1.05766396       0.81655182       0.13229484
Cd       2.05123580       1.17510895       3.34842435       0.02247157       0.17924708      -0.32910115
Cd       6.01893992       1.24456883       3.46235818       1.24525589      -0.91131452      -1.72513898
Cd      10.28243730       1.19424504       3.23478033       1.32456511       0.06400736       0.35753012
Cd       0.06709583       4.67973332       3.41932892       0.27581942       1.30432161       0.31554292
Cd       4.13151464       4.77218981       3.36170501       0.27967516      -0.24977894       0.43476337
Cd       8.25205551       4.76745403       3.27431339      -0.05690526      -0.52180088       0.23136285
Cd      -1.98808389       8.26303748       3.48171690      -0.18043340      -0.03207248      -0.62683871
Cd       2.18270929       8.50405946       3.38867916      -1.07441301      -0.78301448       0.11149757
Cd       6.20120789       8.33433700       3.32739257       0.50196082      -0.05607691       0.38835780
Cd       2.18705180       1.30858538       9.98253341      -3.53639881      -2.11132862       1.49832186
Cd       6.34992788       1.18364792      10.07913377      -1.32474459      -0.67153491       0.21926295
Cd      10.25574245       1.13336600      10.06349394       0.67122291      -0.79117859       0.21966488
Cd       0.03845291       4.66383760      10.07459630       0.49404135       1.56433837      -0.05983063
Cd       4.10325036       4.75053831      10.14726147       0.05146223       0.00481824      -0.71504408
Cd       8.29070368       4.72376718      10.03278058      -0.05348558       0.43280571       0.48858376
Cd      -2.12537418       8.20103473       9.93623401       0.54294982       0.63921624       0.38033587
Cd       2.07480579       8.34934951      10.08724907      -0.47499326      -0.27349788       0.76729265
Cd       6.12548674       8.19737595      10.21759692      -0.13746347       0.13637867      -1.64418145
S        0.15650363       2.56594646       2.46308108      -0.53894202      -1.88961985      -0.01987823
S        4.17404599       2.35810859       2.56781396      -1.04153254       0.64624398      -0.71364903
S        8.31615931       2.20476833       2.46793700      -1.38110888       1.11627303      -0.12867526
S       -1.99405020       5.82656487       2.65923028      -0.27218725       0.66919720      -0.78247000
S        2.15635984       5.89587745       2.56251372      -0.70061363       0.90591662      -0.46816533
S        6.16939517       5.94159602       2.52593437       0.32586955       0.07374473      -0.53693672
S       -4.07100030       9.61112750       2.42497081      -0.17621593      -0.72328615       1.42556849
S       -0.09104729       9.51566911       2.37860996       0.60159003       0.12634397       2.10159223
S        4.18227694       9.53930316       2.53881562       0.41357398       0.26181143      -0.26484725
S       -0.09248611       2.44872458       9.32791938       0.25596814      -1.47854843      -0.88059267
S        3.96759540       2.31188592       9.30714782       4.07528745       1.90621521      -1.64418084
S        8.28098586       2.38408154       9.36814757       0.16133729       0.06805965      -0.37687115
S       -2.09384518       5.87124240       9.19655890       0.51138415      -0.15269049       0.08735498
S        2.19291304       6.07992430       9.22258727      -0.72694671      -1.19334472      -0.36669968
S        6.27349144       5.79850114       9.11439813      -0.60805259       0.40153541       2.63650031
S       -4.14541187       9.48748373       9.34133922      -0.50662439       0.30631600      -0.06784798
S        0.08142978       9.50020909       9.25223595      -0.99365023       0.38550014      -0.06706823
S        3.95590144       9.42136696       9.13080839       1.70376079       1.05024784       0.10186192
S        1.94817300       1.16374040       5.81827755       0.92087123       0.12376878       0.31136105
S        6.19670074       1.26445467       5.73601700       0.55301650      -0.22577828       2.67184365
S       10.47186381       1.33099189       5.74919572      -1.03078148      -0.68949915       0.50244201
S        0.12958823       4.96247657       5.90989545      -2.97502590      -2.46717794      -0.73315347
S        4.19842066       4.77427103       5.94247768      -0.27487813      -0.00635591      -0.22055080
S        8.19708410       4.75976820       5.90061301       1.26026442      -0.53070777      -0.46214266
S       -1.91614028       8.49350777       5.93680224      -1.72796509      -1.12464136      -0.10899044
S        1.99134005       8.34246315       5.97134275       0.96781853       0.45005629      -0.83644447
S        6.20988163       8.24905999       5.98297200       1.28668162       0.07596743      -0.86297944
S        1.99059748       1.25676938      12.56731854       0.51288432      -0.44447586       0.05291107
S        6.25403212       1.16964370      12.59561235      -0.06704500       0.66837435       0.05264512
S       10.33516489       1.19186114      12.62220351      -0.51509242       0.07974074      -0.12918612
S        0.00259052       4.73425392      12.58526442      -0.78351684      -0.48045627      -0.26685263
S        4.09211802       4.87668859      12.58691381      -0.52339639      -1.26781218       0.17229025
S        8.23692036       4.82627825      12.64832332       0.07853414       0.70162873      -0.82820322
S       -2.04647188       8.40298132      12.57524839      -0.46678627      -0.93041121      -0.71222585
S        2.09598970       8.34927124      12.60507136      -0.68322033      -0.06421661       0.32992506
S        6.01926989       8.40091610      12.55011781       1.55742228      -0.62420393       1.10802513
