72
Lattice="12.39778545 0.0 0.0 -6.19889272 10.73679715 0.0 0.0 0.0 13.44794642" Properties=species:S:1:pos:R:3:forces:R:3 ref_energy_eV=-269.74213736 ref_gap_eV=2.1952 energy=-242.86410965 stress="-0.0034016543552349908 -7.452804419301635e-05 0.00018543499895264483 -7.452804419301635e-05 0.0018555412189921777 0.00042173747340203355 0.00018543499895264483 0.00042173747340203355 0.0009038262955534447" free_energy=-242.86410965 pbc="T T T"
Cd      -0.00385515       2.20801493       0.00946345      -0.55934718       0.43586159       0.08291120
Cd       4.05061798       2.47725826      13.36963688       0.89517702       0.07246918       0.17473642
Cd       8.31528979       2.53736027       0.01037644      -0.41563271      -0.51206537       0.57608052
Cd      -1.99428167       5.93068131      13.38065357       0.39915406       0.16541109      -0.42877006
Cd       2.11016731       6.03189506       0.00971386      -0.45511521      -0.12342995       0.13393629
Cd       6.36669037       5.91322908       0.12817224       0.05335476       0.10897554       0.25997790
Cd      -4.15540777       9.59534441      13.43747733      -0.10643246      -0.43330940      -0.04082941
Cd       0.05675905       9.65362460       0.02614200      -0.60599189       0.71846789       0.34588166
Cd       4.08525057       9.37236110       0.01228873       1.28165648       0.71805896       0.45557961
Cd       0.09488106       2.40845783       6.54049669      -0.62867099       0.08455529      -0.11880868
Cd       4.08944220       2.38483988       6.63716927       0.20939709       0.72547962       0.29805014
Cd       8.28246597       2.25591800       6.55541705       0.10426484      -0.00415629       0.61337193
Cd      -1.96120326       6.10013932       6.74517820      -0.67785254      -0.08374329      -0.12184874
Cd       2.16456414       5.99592475       6.74998571      -0.37516555       0.33794676       0.03171277
Cd       6.34280529       5.86937678       6.70921490       0.47696372       0.04911874      -0.44048289
Cd      -4.24727195       9.73133980       6.63934327      -0.04709409      -0.42918897       0.61760171
Cd      -0.22762389       9.51636485       6.74889656       0.43623011      -0.23192917       0.08511684
Cd       4.07952788       9.46111748       6.93695963       0.20399731       0.06256395      -0.21706812
Cd       2.35329364       1.32125984       3.19330498      -0.08191144      -0.08203275      -0.20119530
Cd       6.40849167       1.31836230       3.38442666      -0.07741339      -0.36035585       0.06802907
Cd      10.55081712       1.05274479       3.35537169      -0.48946473       0.09956084      -0.10306652
Cd       0.12967594       4.80230492       3.31005830      -0.52761133      -0.20955005       0.03014846
Cd       4.21726151       4.75975563       3.36861980      -0.26137270       0.85279502       0.45038464
Cd       8.25895041       4.86872436       3.32953200       0.12270328      -0.32988843       0.19510586
Cd      -2.25730254       8.31441735       3.28443660       1.07934070      -0.55885271      -0.18518736
Cd       2.03515792       8.47707767       3.35944898      -0.20206766      -0.42593792       0.28008894
Cd       6.24733918       8.50165152       3.51287794       0.27902762      -0.34652650       0.05177147
Cd       1.98266265       1.10141952       9.99387877      -0.28055482      -0.27518513       0.04363728
Cd       5.84121513       1.20601654      10.02990474       0.58506233      -0.09388935       0.38864173
Cd      10.14902888       1.26960823      10.19182232      -0.42322584      -0.11809460      -0.12135375
Cd      -0.01581387       4.53453682      10.10905680       0.11157301      -0.00047306      -0.32585189
Cd       3.98438107       4.80737945      10.22264676       0.19013514       0.27121204      -0.02520765
Cd       8.10088975       4.81468509      10.02865085       0.20962987      -0.64847257      -0.08656953
Cd      -1.97761446       8.10595212      10.16035560      -0.23587280      -0.00490809       0.14154818
Cd       1.97780719       8.30688430      10.29463590       0.03154109       0.38894123      -0.53833269
Cd       6.18239196       8.29905965      10.12555124       0.00702653      -0.07834086      -0.82760979
S        0.12915970       2.28286865       2.53093808       0.11187885       0.63481283       0.01056124
S        4.37425863       2.56527369       2.47172744      -0.04790283      -1.02742312      -0.30876185
S        8.47988738       2.44507922       2.54034989      -0.09288087      -0.17841783       0.17837607
S       -2.06926223       5.88453349       2.36339280       0.47241534       0.38453436       0.99592171
S        2.15442635       5.97957626       2.54669167      -0.03147318       0.36826380      -0.01816071
S        6.20416073       6.09848392       2.68451995       0.29640614      -0.02885525      -0.54786118
S       -4.12961647       9.61954375       2.56990444      -0.47217551       0.40859742      -0.67058786
S       -0.05115047       9.59614913       2.57965138      -0.15586878       0.14018963       0.03837719
S        4.19901798       9.39490279       2.59859725      -0.35622665       0.54060716      -0.74861654
S       -0.18960404       2.23165918       9.04720560       0.51752364      -0.03765399       0.58983850
S        3.91818657       2.50903832       9.20606700      -0.22268857      -0.19358283      -0.07448104
S        7.96895958       2.29593233       9.18578736       0.72932749       0.32909639       0.08145652
S       -2.05807999       5.72874954       9.21918749      -0.22559233       0.45896803       0.31153294
S        1.93955524       6.01259320       9.33536591       0.07631661      -0.33549144      -0.21579111
S        6.07316982       5.89756517       9.14411850      -0.22651243       0.30288407       0.78731557
S       -4.06154656       9.32778332       9.26381719      -0.20775090       0.68446463      -0.20510423
S       -0.09815184       9.52124408       9.34314259       0.17678667      -0.07856818      -0.27429637
S        4.06929059       9.52831748       9.42561091      -0.05966855       0.00437744       0.10412293
S        2.14274676       1.25473014       5.67841488      -0.39084920       0.07942341       0.35996708
S        6.11882293       1.16436796       5.97571468       0.16457958      -0.07520512      -0.58956299
S       10.33882714       1.02954772       5.83596133       0.44986357       0.25990462       0.32948414
S       -0.01851993       4.88464295       5.88236105       0.71132350      -0.42099576      -0.28125678
S        4.21371159       4.88256623       5.91193578      -0.29642907      -0.65260565      -0.17294006
S        8.41110546       4.62789563       5.84940377      -0.11374109       0.73578740       0.12866455
S       -2.29040203       8.41728402       5.78349027       0.52660783      -0.33532766       0.36442966
S        2.03555849       8.45106735       5.92393928      -0.49987361      -0.34885473       0.10151563
S        6.20617959       8.31849260       5.96560518      -0.25011088       0.08269410       0.42861958
S        2.09350741       1.24967386      12.65184521      -0.15181575      -0.60587041      -0.79774468
S        6.27930557       1.35337511      12.62679329      -0.79457552      -0.35953989      -0.22412556
S       10.18514481       1.15801243      12.77334323       1.02180688      -0.52886041      -0.58515305
S        0.09004382       4.65052010      12.57751034       0.00331949       0.18519230       0.43710996
S        4.20783622       4.91258106      12.77326860      -0.02585740      -0.29005962      -0.61225913
S        8.36947698       4.75510510      12.59161844      -0.34537295       0.84435317      -0.58073206
S       -1.99440304       8.40273330      12.74351770      -0.29380874      -0.21362305      -0.43753706
S        2.03824286       8.47397968      12.76638231      -0.56010658      -1.08739937      -0.47234189
S        6.16917270       8.20664846      12.54254581       0.33768816       0.61309613       1.02789065
