72
Lattice="12.39778545 0.0 0.0 -6.19889272 10.73679715 0.0 0.0 0.0 13.44794642" Properties=species:S:1:pos:R:3:forces:R:3 ref_energy_eV=-269.09413757 ref_gap_eV=2.1936 energy=-242.21910154 stress="0.0010307439882473164 -0.0008638382697838453 -0.0014835509700629381 -0.0008638382697838453 0.002383428643524493 0.001330410375689836 -0.0014835509700629381 0.001330410375689836 -0.0056363565494364255" free_energy=-242.21910154 pbc="T T T"
Cd      -0.16995262       2.48166067      13.37500395       0.52429300      -0.25780802       0.05011961
Cd       4.11895190       2.71401741      13.44655725       0.34916403      -0.09741175      -0.55698988
Cd       8.18842772       2.35086984       0.21685392       0.74303408       0.33030797      -0.30361921
Cd      -1.91680016       6.28871259       0.04684135      -0.06523050      -0.70665691       0.27920710
Cd       2.06266699       6.27704137      13.38822799      -0.01991456      -0.60127982       0.17773749
Cd       6.40752905       6.01953883      13.27328194      -0.20660329       0.29737519       0.07596051
Cd      -4.06597994       9.70725125       0.22847563      -0.13041269      -0.23998273      -0.23107054
Cd       0.03969678       9.68692489      13.32611704      -0.06104699       0.31981037       0.03229219
Cd       4.14394188       9.56224641       0.11168277      -0.08476148      -0.00140521      -0.40201771
Cd       0.00800940       2.18553293       6.75249442      -0.04937904       0.27129019      -0.97034976
Cd       4.07724464       2.53062970       6.80659820      -0.03483358      -0.15314978      -0.37908236
Cd       8.02409724       2.27386843       6.81528450       0.36121606       0.10007928      -0.71159602
Cd      -1.95495998       5.85503306       6.80747716       0.31083523      -0.41875568      -0.21130657
Cd       2.03251359       5.94629777       6.83139796       0.42406746       0.24946358      -1.09014306
Cd       6.25866660       5.76808562       6.63381979      -0.13007729       0.52853025      -0.89202015
Cd      -4.10203413       9.52514712       6.69007040      -0.19461753      -0.54032732      -0.14760372
Cd      -0.05092830       9.52479667       6.58778613       0.05605711      -0.36911191       0.64447776
Cd       4.16822901       9.51072546       6.86683196       0.47282263      -0.06528109      -1.47268125
Cd       2.06174968       1.31968862       3.44862164       0.13264023       0.24150141      -0.40442798
Cd       6.06253072       1.38748924       3.23646011       0.79948751      -0.41884979       0.57047667
Cd      10.29959695       1.08136393       3.51698427       0.28947380       0.58728102      -0.38120797
Cd      -0.03749010       4.72549108       3.42062678      -0.11179233      -0.67042380      -0.21090490
Cd       4.26938769       5.03217642       3.12146013      -0.29010247      -0.52449240      -0.01721350
Cd       8.49017953       4.89556850       3.31290819      -0.40002686      -0.30165424       0.56031925
Cd      -1.88350745       8.50784805       3.53352404      -0.34823776       0.40161959      -0.62140332
Cd       1.89616944       8.28826186       3.47568536       0.27653046      -0.11390375      -0.52878475
Cd       6.07034121       8.41578506       3.37592433       0.80593275      -0.45538082      -0.28991322
Cd       2.16565713       0.96506917      10.22906735      -0.18489138       0.07662315       0.10994987
Cd       6.15060955       1.06985376      10.07570360       0.27182432      -0.77310097       0.28113967
Cd      10.41723272       1.21578906       9.84783689      -0.25818240      -0.14360678       0.71816025
Cd      -0.17164759       4.53636186      10.07605661       0.33807240       0.39304916       0.37775120
Cd       4.22475008       4.69766635      10.09437070      -0.30984889      -0.14190893      -0.25420441
Cd       8.25118091       4.64505894      10.26689104      -0.33500452      -0.42730721      -0.32776313
Cd      -2.31048811       8.16322295       9.96829943       0.53552470       0.69280539       0.25585132
Cd       2.11584494       8.16347859       9.91055126      -0.28369810       0.01632906      -0.14660744
Cd       6.09476274       8.05501386       9.94822380      -0.10245036       0.76210277       0.54039912
S       -0.00232458       2.29134482       2.43382736      -0.49666461       0.38988547       0.59987891
S        4.13109033       2.44043180       2.38347664      -0.87907591       0.82023123       0.88512236
S        8.29697070       2.42620393       2.68464784       0.13972589       0.17192554       0.10391797
S       -1.92012487       6.16813986       2.63965545      -0.00505603      -0.12499645      -0.56514813
S        1.93140011       5.87004740       2.48091064       0.85088528       0.81672854      -0.24026987
S        6.41381386       5.99754321       2.34603419      -0.20713354       0.40703529       0.49983341
S       -4.15419378       9.67530477       2.75160624       0.37090907      -0.72411311      -0.42553644
S        0.08224034       9.72769991       2.42621004      -0.17650273      -0.40867962       0.28688878
S        4.07448415       9.53433331       2.62172126      -0.74484731      -0.35443152      -0.49717242
S        0.17281248       2.23047770       9.13856544      -0.13404595       0.13814274       1.20788536
S        4.13062312       2.22194452       9.31143664      -0.17194629       0.69060913      -0.28525692
S        8.18482412       2.22673689       9.24584872       0.36534393       0.46082527       0.56917049
S       -2.20352944       5.81337934       9.28471597       0.52531340      -0.21876351       0.01694635
S        1.99734064       5.74786426       9.20603728       0.25242512      -0.11082095       1.00099588
S        6.26566373       5.80040778       9.05845494      -0.13915674      -0.45059586       1.00414118
S       -4.32833444       9.45807081       9.17353117       0.32618439      -0.17300124       0.30349325
S       -0.01946873       9.29617709       9.21336224      -0.54968857       0.54985579      -0.11731054
S        4.10498196       9.51228186       9.20379981       0.22965632      -0.30393269       1.27476488
S        2.10317148       1.08554817       5.90551842       0.23650455       0.81012348       0.16368546
S        6.02661948       1.12128850       5.83098788      -0.01230908       0.51395127      -0.17481375
S       10.26738254       1.14597175       5.97147844      -0.16757261       0.10614720       0.32298390
S        0.13187983       4.63253951       5.89330391      -0.50555002      -0.05590912       0.29793199
S        4.12519735       4.83331397       5.65805603      -0.09660714      -0.19620537       0.61166493
S        8.40521967       4.68327721       6.02468780      -0.29104281      -0.35187500      -0.91188430
S       -2.11194489       8.15923917       5.95387172       0.29148116       0.56680130       0.20235143
S        2.13780966       8.39819303       5.92381744      -0.49158542      -0.52584533       0.18704631
S        6.23361192       8.30723700       5.81220621      -0.21736566      -0.28046481       0.83388965
S        2.26920318       1.30966281      12.69421646      -1.22787442      -0.25370939      -0.22354926
S        6.19469391       1.42993856      12.64783489      -0.37658687      -0.52819624      -0.43435232
S       10.26253780       1.19091523      12.60643257      -0.09073281       0.04265741      -0.48274021
S        0.02313303       4.87028441      12.67778697       0.06243073      -0.01112986      -0.57820474
S        4.19878962       5.01431661      12.56787004      -0.21268601       0.18601315       0.02740559
S        8.47689363       4.82393505      12.71164661       0.11305906      -0.34347661       0.14136168
S       -2.01615055       8.50635918      12.55540689      -0.60571467       0.42848261      -0.27215846
S        2.02036445       8.50035108      12.38164678       0.49071711       0.26479010       0.61265640
S        6.17782437       8.42168654      12.55330000       0.45524543       0.20557171      -0.06854993
