72
Lattice="12.39778545 0.0 0.0 -6.19889272 10.73679715 0.0 0.0 0.0 13.44794642" Properties=species:S:1:pos:R:3:forces:R:3 ref_energy_eV=-266.21414973 ref_gap_eV=2.2005 energy=-239.59758414 stress="-0.008282508075404317 -0.0012259146242062054 -0.0009253532854946526 -0.0012259146242062054 -0.014898516243534493 -0.0011699866766649051 -0.0009253532854946526 -0.0011699866766649051 -0.002362953815984181" free_energy=-239.59758414 pbc="T T T"
Cd       0.03169823       2.40408001      13.36675592       0.15443229      -1.29151411       1.12782913
Cd       4.13549365       2.38774182      13.44666120       0.47902306       0.46131447       0.05449156
Cd       8.28234900       2.37372869      13.42242343       1.45010229       1.06547322       0.55877544
Cd      -2.01125634       5.83034251      13.34279478       0.12074379       0.14761502       0.54819022
Cd       2.02323875       5.97911533       0.03122452       0.43193915      -0.74825566       0.30503706
Cd       6.29104981       5.85225921      13.41097949      -1.31546339       1.01272662       0.52649925
Cd      -3.98084069       9.57717098      13.34082129      -0.86868040      -0.41487042       0.54707771
Cd       0.01499122       9.54009403       0.00476326       0.30802513       0.28045846      -0.03709414
Cd       3.96583293       9.52434573       0.09916395       0.48566255       0.00813686      -1.72634846
Cd      -0.14180010       2.41115942       6.69412361       0.41496926      -0.61128576       0.42421611
Cd       4.08290330       2.37143982       6.73786265      -0.06026339       0.06440401      -0.29191580
Cd       8.47034096       2.33838273       6.85652236      -1.04672371       0.58958533      -0.92483497
Cd      -2.06192343       5.92731543       6.60243470       1.56353636       0.82211598       0.88297506
Cd       2.18148513       6.07347191       6.76810574      -0.73214773      -0.94470369       0.50343211
Cd       6.20564543       5.96567092       6.72945930       0.00859752       0.30609895      -1.01245366
Cd      -4.12497586       9.66534800       6.70854909       0.16874363      -2.07298028       0.36770449
Cd       0.00702639       9.57621047       6.81794410       0.63884280       0.23390499      -1.07180920
Cd       4.10813875       9.41636415       6.72372805      -0.07596772       0.29277447       0.39968520
Cd       2.23953776       1.29671982       3.43616131      -0.82125258      -0.69223279      -0.30664523
Cd       6.16284964       1.29185272       3.29780520       0.69430003      -0.71264082       0.55127527
Cd      10.35524106       1.23243754       3.29629608      -0.35489820      -0.11557352       0.32522566
Cd      -0.09278558       4.78504938       3.38784701       1.09194585      -0.49585816       0.39968793
Cd       4.16485446       4.78662232       3.36578861       0.17006658       1.21929598      -0.20471698
Cd       8.16036050       4.67864719       3.33153924       0.39823930       2.95483357       0.94960265
Cd      -2.06798421       8.43443251       3.48236697       0.48013199      -1.09039206       0.24591672
Cd       1.95645151       8.38658183       3.20533255       0.28563095      -0.35855111       0.46601876
Cd       6.09519244       8.33945266       3.32114694       0.76740889       1.38833175       0.63121088
Cd       2.10990497       1.17618048      10.18702167      -0.29538245       0.15837778      -1.09189426
Cd       6.18461308       1.19544595      10.08953132       0.17496730       0.57886266       0.26750450
Cd      10.32083119       1.19309845      10.11072394      -0.33472779      -0.39504692      -0.07589620
Cd       0.11204660       4.79548243      10.11880938      -0.90276316      -0.39992925       0.56933990
Cd       4.32148659       4.76709488       9.94280790      -1.08965125       0.64681280       1.08557661
Cd       8.40974090       4.90569018       9.99404835      -0.44990719      -0.13588161       0.15068109
Cd      -2.10526081       8.45650533       9.97575995       1.76918647      -0.42707901       1.21710776
Cd       2.05747350       8.27629667       9.94553340      -0.49964857       0.71194702       1.02377402
Cd       6.21690002       8.37152218      10.09464773      -0.22118978       0.40307550       0.04053426
S        0.00558111       2.38421275       2.53618130       0.53521006      -0.20576752      -0.05112502
S        4.20437296       2.50693305       2.65211564      -0.40228832      -0.28189120      -1.27022278
S        8.17864184       2.60660091       2.52993029       0.52932973      -3.17577841      -0.88030829
S       -1.98832899       5.86617829       2.56300968      -1.34391239       1.05521181      -0.55538669
S        2.07029665       5.94000375       2.52142460      -0.09350696       0.01177706       0.38748650
S        6.27063214       6.18260533       2.48788219      -0.22613788      -1.95047805      -0.19168868
S       -3.91784420       9.53691530       2.52432586      -1.63823666       0.85906892      -0.37509136
S       -0.07986355       9.56809206       2.51227798       0.36943877       0.59562129       0.17603386
S        4.10876068       9.50585632       2.43281608      -0.28662003       0.70414074       1.43967691
S       -0.15729820       2.48783604       9.29890181       1.02352750      -0.68106223      -0.29997636
S        4.16637920       2.50802283       9.26771131      -0.42226576      -1.30836600      -0.14933514
S        8.25950447       2.42788853       9.23121063      -0.10671976       0.40244014       1.03278347
S       -1.91439468       6.11476177       9.35743251      -0.20049248      -0.66426824      -0.60255600
S        1.95949919       6.01258611       9.34098971       1.46675746      -0.79062640      -0.89567532
S        6.10179811       6.09101165       9.13130583       1.28362440      -0.04704914       0.46842840
S       -4.00568251       9.45691649       9.20897095      -1.98815809       1.45285003      -0.10210158
S        0.06587861       9.67319821       9.20350987      -0.23644215      -0.59201939       1.00825191
S        4.00048654       9.46710775       9.22228092       1.12240141       0.82121251       0.33437351
S        1.99434143       1.05095926       5.90963591       0.04503942       2.60394438      -0.29957591
S        6.17670323       1.25212153       5.88544198       0.47527258       0.00176082       0.04377733
S       10.30444114       1.05813187       6.01484645       0.30295272       0.12619941      -1.22036781
S        0.04854713       4.68217465       5.95752028       0.26743055       0.94875293      -0.24084750
S        4.06441194       4.82522175       5.83857682       0.72720531      -0.53955639       0.47512896
S        8.38910887       4.96027821       5.88017966      -1.83549972      -1.45388827      -0.32674416
S       -1.97046025       8.39601067       6.00935256      -0.48664222      -0.26649483      -0.25247093
S        2.18059801       8.25301435       5.87229284      -1.25098010       1.08699943      -0.82197301
S        6.15747043       8.51455382       5.87684430       0.85268003      -0.97213873      -0.28782136
S        2.09415160       1.21348999      12.60192347       0.24901292      -0.13454104       0.48437575
S        6.42659547       1.26335587      12.67254200      -2.28991089      -1.09255514      -0.71053248
S       10.41693331       1.30288231      12.62416261      -0.74373049      -1.02818682       0.05607970
S        0.14416362       4.59128133      12.69740470      -0.55096633       1.95520518      -0.88893897
S        4.14731804       4.85627515      12.60300778      -0.07047931      -0.65297609      -0.24442715
S        8.19200089       4.81390957      12.62789119       1.67558988      -0.86010499      -0.99067011
S       -1.98415739       8.32906083      12.76926232      -0.02357233      -0.50297476      -1.18992451
S        1.99372117       8.20441521      12.67029001       0.15063454       1.32832451      -0.89540131
S        6.17396934       8.25967847      12.57171225       0.13262668       0.80786421       0.41100570
