72
Lattice="12.39778545 0.0 0.0 -6.19889272 10.73679715 0.0 0.0 0.0 13.44794642" Properties=species:S:1:pos:R:3:forces:R:3 ref_energy_eV=-269.37192084 ref_gap_eV=2.2242 energy=-242.53336944 stress="-0.0025684271550194377 -0.0004897927106239797 0.001172988886245019 -0.0004897927106239797 0.0013127773571866117 0.0003426897527226731 0.001172988886245019 0.0003426897527226731 -0.0010372029515511453" free_energy=-242.53336944 pbc="T T T"
Cd      -0.12509347       2.47853282       0.12695359      -0.24162053       0.28390503      -0.48949062
Cd       4.04586969       2.44753762      13.42208414       0.06614764      -0.40320731       0.12280528
Cd       8.33142185       2.38873219      13.11417081      -0.75864470       0.68462816       0.58666146
Cd      -2.07489331       6.33370868      13.38562931       0.00825193      -0.23226002       0.06736579
Cd       2.10842598       5.76836886      13.35100542      -0.83500472       0.50261980       0.15153109
Cd       6.17149765       6.08811068       0.11249153       0.13637705      -0.08186544       0.04551111
Cd      -4.19983759       9.64302824       0.03123797       0.38513875       0.18835296       0.55688125
Cd       0.24683954       9.53064340      13.44185100      -0.71015696       0.42680129       0.11171326
Cd       4.19497538       9.63360123       0.16223925      -0.20935353      -0.19631091      -0.26642588
Cd       0.12231104       2.37312969       6.84737695       0.14208741       0.19910821       0.13932490
Cd       4.25011285       2.34253465       6.93156633      -0.23309770      -0.32358141      -0.80411656
Cd       8.50992659       2.35812125       6.51779548      -0.51570383       0.37986166       0.88998602
Cd      -2.09973636       5.94666518       6.54530958       0.17046748      -0.05502169       0.54659978
Cd       2.31784720       5.86998008       6.83930898      -0.13120597       0.10237565      -0.40185149
Cd       6.19169290       5.99954262       6.72983544       0.21067645      -0.11604334      -0.06606917
Cd      -4.24372365       9.46028323       6.76438187       0.37333863       0.15072412      -0.54522086
Cd       0.05825999       9.62183134       6.68977696       0.12471375      -0.10038170       0.13588504
Cd       4.03294153       9.47523798       6.50535748       0.70424274       0.10864641       0.25854277
Cd       2.00233546       1.07153815       3.41686687       0.56581532      -0.44154122       0.23070819
Cd       6.17953972       1.02177793       3.33441926       0.28595461       0.29465335       0.32607747
Cd      10.19505789       1.34894951       3.41374829      -0.20351581      -0.35098291      -0.51197232
Cd       0.12759584       4.64222915       3.45313235      -0.37796006      -0.04986079       0.06360908
Cd       4.12933015       4.54288425       3.31855041       0.12613792       0.42324891       0.33571049
Cd       8.45364431       4.73834582       3.33384140      -0.14242217       0.08110229      -1.02596268
Cd      -1.96178750       8.41086159       3.54610271       0.13968368      -0.26394293      -1.10745286
Cd       2.06488117       8.11628618       3.27680772       0.64669282      -0.27243739       0.68074524
Cd       6.04804088       8.21512645       3.27450623       0.17119628       0.39479014      -0.32972845
Cd       1.90229227       1.10536293      10.10636802       0.11759849       0.57084949       0.02522080
Cd       6.40863294       1.28482817      10.07253043      -0.44256452      -0.02248297       0.03578464
Cd      10.28004539       0.98521699      10.06186204      -0.41262998       0.51646147       0.08699614
Cd      -0.17235717       4.91982818      10.02008357      -0.05855620      -0.29502285      -0.26816960
Cd       3.98362165       4.78587461      10.18121189       0.02598052      -0.54915577      -0.26072458
Cd       8.04699068       5.05041652      10.18417138       0.05644551      -0.53174489       0.34845823
Cd      -2.14325153       8.48374533       9.95495705      -0.16537786      -0.22280645       0.38032630
Cd       2.01898197       8.46656882      10.09138472       0.21005846      -0.14780247       0.24391184
Cd       6.23859961       8.34133246      10.22377988      -1.32071754      -0.58712348      -0.41152340
S        0.02820000       2.20556726       2.57081124      -0.57158250       0.70942516       0.15710346
S        4.12449309       2.23141148       2.54944501      -0.24450791      -0.43507610      -0.27064408
S        8.13162615       2.35071501       2.33898532       0.48866527       0.26402479       0.34179296
S       -1.84402169       6.02077324       2.49163928      -0.39005301      -0.17998559       0.22464617
S        2.10393494       5.80152054       2.49466520       0.20989567      -0.32166430      -0.28014910
S        6.14058160       5.88014911       2.57262174       0.36793121      -0.46330165       0.09611716
S       -4.13040721       9.36279215       2.67275837      -0.06224680       0.37528891      -0.65750207
S        0.23295786       9.40849472       2.53395405      -1.53632249       0.57560494      -0.17985744
S        4.01161889       9.51796904       2.60690553       0.45751225       0.43430771       0.25895394
S       -0.20768609       2.35323429       9.37174220       0.90447015       0.64798325      -0.38405661
S        4.06368239       2.35312843       9.29096980      -0.02247356      -0.14269447       1.39204063
S        8.40671162       2.62284161       9.37581787      -0.30396019      -0.45364148      -0.55719397
S       -2.32335726       6.06095420       9.23512922       0.75380206       0.23435699      -0.51522230
S        2.04433848       6.03442562       9.31206129      -0.55163493      -0.07116498       0.06173150
S        5.95585454       5.96860132       9.24159016       0.32435726       0.46382849      -0.04907712
S       -4.36941153       9.50168174       9.23012121       1.15861858       0.49868343      -0.16571018
S       -0.05100969       9.55097180       9.21791316       0.24964689       0.59621425       0.10474018
S        4.09659579       9.51646223       9.09761442       0.15903437      -0.66135515       0.06638950
S        2.14607594       1.13671212       5.96833687       0.08887044       0.05349632       0.00742050
S        6.31625078       1.26677908       5.99974925       0.02833038      -0.22277358      -0.69321961
S       10.51949585       1.18363171       5.87328584       0.08076352      -0.31918651      -0.01396863
S        0.09643438       4.80845667       6.01478755       0.08342563      -0.28462102      -0.17669278
S        4.32071402       4.58131533       5.90250688      -0.63550876       0.59312303      -0.29748906
S        8.26471948       4.75746408       5.75560932      -0.04949520       0.02869283       0.73123594
S       -1.96999186       8.36365018       5.93537716      -0.52228607       0.23013691       0.83392569
S        2.03128565       8.28901441       5.86882489      -0.13243269      -0.61060451      -0.23919768
S        6.23924715       8.27480125       5.71514875      -0.42627512       0.19725323       0.89988087
S        1.87555322       1.31970805      12.66413407       0.57895431      -0.22737463      -0.16966090
S        6.15437488       1.21714244      12.67967681       0.04894853      -0.00587132      -0.44341852
S       10.30594610       1.16620653      12.58210873       0.69326918      -0.21182880      -0.01082299
S       -0.15535113       4.82859826      12.51831355       0.31590018       0.11046743       0.57590423
S        4.22225726       4.82019597      12.64099648       0.05749090      -0.33730911      -0.00101686
S        8.22593796       4.94788053      12.74006736       0.35049340      -0.19593143      -0.32200096
S       -2.03286190       8.72192786      12.56302165      -0.01646172      -0.46784430      -0.13153542
S        2.17917549       8.32280332      12.69203533       0.44597561      -0.50708084      -0.57941495
S        6.21238642       8.41475551      12.64135056      -0.28958820       0.04186911       0.50432080
