72
Lattice="12.39778545 0.0 0.0 -6.19889272 10.73679715 0.0 0.0 0.0 13.44794642" Properties=species:S:1:pos:R:3:forces:R:3 ref_energy_eV=-269.4787468 ref_gap_eV=2.2285 energy=-242.61400691 stress="-0.0029494611509437905 0.0005743679367512588 0.0003297132870009234 0.0005743679367512588 -0.00045598169422495676 0.0008349085067363381 0.0003297132870009234 0.0008349085067363381 -0.0010107477970758318" free_energy=-242.61400691 pbc="T T T"
Cd       0.28019491       2.28489888       0.15709891      -0.83874912       0.63266052      -0.33021954
Cd       4.29598019       2.40175710       0.19712000      -0.35363858       0.35703952      -0.75457124
Cd       8.40299774       2.29399283      13.39336591      -0.19814625       0.25602861       0.43739397
Cd      -2.05504545       5.92657556       0.02585475       0.11652567      -0.24134731       0.04092791
Cd       1.96639521       5.90887831       0.02643355      -0.15599855       0.52866970      -0.51452540
Cd       6.13554004       6.00705527       0.10290436      -0.19310255      -0.01955648      -0.79088715
Cd      -4.18584967       9.53632080      13.25794375       0.60099142      -0.56302182       0.28850292
Cd       0.02295178       9.62943331       0.08479979      -0.08274787      -0.45267245      -0.10721370
Cd       4.05253530       9.60623990      13.41907422       0.13739949      -0.74320068       0.28701961
Cd       0.02428175       2.40153496       6.88610784       0.63228119      -0.12758760      -0.65700430
Cd       4.23499363       2.13455344       6.77705427      -0.76300033       0.10981192      -0.90919802
Cd       8.33586262       2.51857979       6.77564103      -0.71065899       0.26844794       0.41302132
Cd      -2.16158092       5.92947160       6.64907191       0.54335383       0.28013506      -0.10393938
Cd       2.09103709       6.05364684       6.81459408       0.01820238      -0.41603223       0.17702323
Cd       6.12543690       5.78696692       6.48223037      -0.12982378      -0.29914548       0.18851234
Cd      -4.29948262       9.32061006       6.74029700       0.29403185       0.70186089      -0.36684464
Cd      -0.18605666       9.55917085       6.73603696       0.38934905      -0.02915447       0.13855723
Cd       3.94536574       9.75367394       6.62494589       0.02694823      -0.75565351       0.48346254
Cd       1.99871394       1.22332919       3.31080372       0.50798144      -0.83198707       0.66887933
Cd       6.15011153       1.25606612       3.33398785       0.08334715      -0.42706293      -0.01488169
Cd      10.24778536       1.33144992       3.58072673      -0.15090348      -0.36341124      -0.87160625
Cd       0.06501405       4.75501920       3.37767068      -0.16627443      -0.43522511       0.47369142
Cd       3.99407273       4.84362978       3.43198222       0.13488215      -0.35475924      -0.24553004
Cd       8.32509341       4.85682659       3.04635416      -0.78709217      -0.00894534       0.25290261
Cd      -2.19370711       8.38896293       3.27426377       0.80733863      -0.16245132       0.42718925
Cd       2.26558967       8.37805574       3.33464357      -0.91487035      -0.26545462      -0.06837210
Cd       6.22284810       8.49033365       3.44344687      -0.14090720      -0.51250905       0.23727085
Cd       2.00433411       1.21775637      10.12819793       0.65674923      -0.15564074      -0.07980096
Cd       6.01542404       1.29203750      10.09107084       0.74226828       0.41670823       0.30044101
Cd      10.31525287       1.01532920      10.18113671      -0.19272303       0.29974357      -0.16060709
Cd       0.00016712       4.78073652       9.94003144       0.52913815      -0.39286942       0.33868542
Cd       4.32570376       4.81388917      10.07081420      -0.20985547      -0.16540572       0.59093342
Cd       8.33994949       4.79649062      10.16161043      -0.06044033       0.50333257       0.59241350
Cd      -1.95126488       8.20408548      10.07825226      -0.24772391       0.55639416      -0.13396097
Cd       2.05762004       8.39938460      10.00978823      -0.24286051      -0.04061140       0.42330695
Cd       6.40596996       8.29890471       9.94385940      -0.41347511      -0.06640147       0.17975628
S       -0.05420448       2.22532533       2.63030670      -0.27287765       1.15394006      -0.39967424
S        4.04963087       2.37426639       2.59573069       0.18756632       0.34750176       0.37105062
S        8.25843969       2.41270574       2.62042542      -0.20848065      -0.08984979      -0.82740227
S       -1.97826832       5.97617892       2.59021622       0.20848219       0.14026501      -0.45383163
S        2.00585222       5.96415081       2.46594550       0.07240072       0.37899437       0.51034042
S        6.01730404       5.97921658       2.51441270       0.68307299       0.36158755       0.90719904
S       -4.13446624       9.48917091       2.42823853      -0.59363972       0.60578745      -0.32137110
S       -0.01216061       9.51139618       2.58764632       0.21071015       0.20152423       0.11204483
S        4.16058460       9.68169725       2.62816337       0.32267910       0.15742563      -0.51084667
S       -0.02662815       2.21879682       9.30819985      -0.39802661       0.85836171       0.29684911
S        4.08061808       2.45284139       9.14305356      -0.35093110       0.09756693       1.06225796
S        8.38006698       2.53030727       9.39667308      -0.46727674      -1.39614626      -0.61423846
S       -2.03890874       5.91535733       9.16362891      -0.07579569       0.10202208      -0.05208200
S        2.22994386       5.96531049       9.37590233      -0.75547217       0.02942494      -0.44902105
S        6.32856210       5.86926855       9.13498882       0.08332880       0.43545114      -0.22040003
S       -4.02875913       9.61676378       9.15855151       0.33376859      -0.35472867       0.79499803
S       -0.03667116       9.70325394       9.34963432       0.21415174      -0.75970574      -0.68438937
S        4.15410918       9.45922576       9.27084320       0.32213261       0.07005156      -0.57839338
S        2.03373539       1.05648441       5.86440051      -0.06743059       0.07831109       0.23864672
S        6.27140043       1.18794479       5.85441716       0.54988198      -0.07043177       0.20904836
S       10.32049924       1.37112496       5.95218736       0.32882588      -0.33847262       0.71135853
S        0.03161919       4.75422994       5.98881930      -0.10761109       0.15226322      -0.26316183
S        3.92290721       4.54724049       5.86358059       0.56206715       0.38387204       0.48908045
S        8.33305223       4.80875741       5.63379082      -0.78818339      -0.29999703       0.28803881
S       -2.17824633       8.36557002       5.85467940       0.16854240      -0.33488488      -0.11733610
S        1.96450399       8.31205342       5.82878820       0.00676619       0.60138331       0.40203483
S        6.02040349       8.26098245       6.07892323      -0.47450148       0.11163044      -0.87227172
S        2.18479522       1.16173530      12.62224910       0.63856483       0.22167055      -0.06967595
S        6.23509079       1.22855265      12.66590745       0.09973070       0.06519067      -0.34762652
S       10.46924620       1.16208350      12.67170796       0.29552249       0.56705563       0.03044345
S       -0.00067431       4.75118735      12.53432737      -0.26397339      -0.68268518       0.13738458
S        4.00332625       4.80510432      12.70301451       0.97952793      -0.51712191      -0.57095219
S        8.21650542       4.74578449      12.75697103       0.06710209       0.09906202      -0.26894601
S       -1.93613853       8.22170703      12.55748917      -0.48130104       0.76066714       0.38364745
S        2.02249091       8.35648702      12.61400242       0.09789499      -0.02087164       0.03093639
S        6.19072996       8.35277606      12.54380575      -0.39501465      -0.19684098      -0.18446770
