72
Lattice="12.39778545 0.0 0.0 -6.19889272 10.73679715 0.0 0.0 0.0 13.44794642" Properties=species:S:1:pos:R:3:forces:R:3 ref_energy_eV=-266.67479172 ref_gap_eV=2.1533 energy=-239.99765451 stress="-0.008169508255253652 -0.0062733810302270515 0.0001827087264909864 -0.0062733810302270515 -0.004809381506361324 0.0010362508030924826 0.0001827087264909864 0.0010362508030924826 -0.00894654228748062" free_energy=-239.99765451 pbc="T T T"
Cd      -0.05606830       2.52356725       0.07086490       0.79014972      -0.21141856      -0.04733490
Cd       4.05948215       2.26585051      13.32278786       0.42998205       0.76689462       0.89702744
Cd       8.34773517       2.41955399      13.41008386       0.44095450      -0.18726987       0.13302165
Cd      -2.11377803       5.97626514       0.02621879       0.11331775       0.11748638      -0.33287338
Cd       2.11197980       5.98872057       0.05875125       0.44553218      -0.36720508      -0.70493077
Cd       6.19973881       5.93255102       0.18868652      -0.15206996       0.42459837      -1.71613438
Cd      -4.03332852       9.55442497       0.15308039      -1.22664703       0.63847297      -1.60794480
Cd      -0.02826236       9.76681278       0.02869267      -0.04342930      -0.45844202       0.05902439
Cd       4.11393545       9.54957516       0.04596145       0.37430601      -0.23460677       0.01109176
Cd       0.03368243       2.42546395       6.69583957      -0.02483728      -0.62600859       0.37812332
Cd       4.03592778       2.48448230       6.53188073       1.41156949       0.11417947       0.90705251
Cd       8.13689192       2.34098157       6.53325255       2.40808214       1.20914831       1.09814467
Cd      -2.05008236       5.93242840       6.70119656       0.05442817       0.47405524      -0.07989094
Cd       2.09814381       5.97532975       6.72552927      -0.16170630      -0.08831761      -0.52227557
Cd       6.18161424       5.97040510       6.72445680       0.41197474       0.14400912       0.35892673
Cd      -4.19552651       9.69461598       6.80613196       0.33651027      -0.62693952      -0.20609702
Cd      -0.00534927       9.57931287       6.74170056       0.74860029       0.06957162       0.11233460
Cd       4.18634825       9.54633297       6.68038344      -0.59771135      -1.04049308       0.46010818
Cd       2.07693895       1.23089252       3.38531328      -1.10684485      -1.12020093      -0.09567767
Cd       6.26264623       1.26163358       3.30712396      -0.76863893      -0.02593488       0.31186914
Cd      10.36696218       1.23295785       3.27491438      -0.65234244      -0.28144695       0.82888002
Cd      -0.05284674       4.80805726       3.31871569       0.58244147      -0.38138000       0.39737719
Cd       4.13050813       4.76659905       3.36494744       0.25879301      -0.04254320      -0.21465340
Cd       8.42777149       4.76060792       3.39739814      -1.42259918       0.06183095      -0.47134360
Cd      -2.11584096       8.33794489       3.34741118       0.30503764       0.32172629       0.03294925
Cd       2.09614802       8.10292896       3.36082443       0.23344540       2.00632329       0.13951880
Cd       6.34285681       8.49329228       3.43783934      -1.59240586      -1.03144433       0.20165701
Cd       1.98248679       1.26184370      10.10824266       1.22594133      -0.67906401       0.49976458
Cd       6.30741531       1.28743163      10.09923899      -1.11948819      -0.61082516      -0.33423245
Cd      10.21138658       1.05985598      10.21342026       0.19247902       0.30901013      -1.41882234
Cd      -0.06083221       4.89627412      10.14129139      -0.15154717      -0.47937502      -1.20048635
Cd       4.05190301       4.75565235      10.02719000      -0.13577968       0.04173074      -0.10979742
Cd       8.27371580       4.85087422      10.09146016       0.05137259      -0.39143949      -0.18970534
Cd      -2.03746824       8.40840319      10.07758793      -0.33894863       0.68052451       0.54887120
Cd       2.17532040       8.38006180      10.17020784      -0.53749037      -0.07146969      -0.59815323
Cd       6.15747948       8.35091387      10.03622003       2.01955321      -0.70403623       1.11666149
S       -0.03586785       2.38540507       2.58302076       0.50760737       0.43157446      -0.25358029
S        3.89754525       2.39212319       2.56138288       2.14446699       0.51012888      -0.83278078
S        8.25624478       2.46519858       2.55701755       0.34545529      -0.30910219      -0.59215783
S       -2.07655449       5.89060386       2.58714216       0.46550366       1.14922956      -0.91319889
S        2.06905402       5.94406763       2.51873945      -0.20580052      -1.24108950      -0.35817156
S        6.11235736       6.08001492       2.50777735       0.43459362      -0.36750426       1.59279269
S       -4.23681523       9.40834848       2.42841309       1.92253419       1.32935675       1.48360812
S        0.07287729       9.60520315       2.62520590      -0.21535511      -0.45663635      -0.59599450
S        4.28909100       9.61726057       2.57251039      -1.02068172      -0.51872099      -0.10468305
S        0.05696708       2.24247672       9.26003617      -1.73448679       1.27805665      -0.40788389
S        4.08764706       2.36637291       9.16869207       0.25047091       0.02130247      -0.09139271
S        8.19868230       2.39741407       9.18666444       1.25534056       0.43850835      -0.19469099
S       -2.15018084       6.16651742       9.25971705       0.28481133      -1.43301047      -0.44777015
S        1.91085034       6.07516543       9.10993651       0.54783680      -0.36606210       1.20489809
S        6.20618244       5.97857473       9.31864958      -0.36441007      -0.27481065      -0.66230891
S       -4.11947670       9.55596946       9.26426178      -0.16117704       0.14386404       0.20065375
S       -0.03841577       9.49911114       9.21922003       0.93929348       0.68845380       0.54560120
S        4.27647247       9.38531709       9.33474448      -2.14071633       1.55101724      -1.26765863
S        2.19956203       1.22182110       5.82607561      -1.40034909      -0.45109281       0.05879614
S        6.35232034       1.17898848       5.89795637      -2.77430890      -0.80318367      -1.03637879
S       10.36200914       1.07451880       6.03995659      -0.06936502       1.48139942      -0.93746146
S        0.05744173       4.72012161       5.86614458      -0.29112427       0.46931779      -0.15545638
S        4.15681282       4.85362090       5.85992786      -0.05399931      -0.10127177      -0.04426728
S        8.25368408       4.76308844       5.77405667       0.07400202       0.21480764       1.27638469
S       -1.94131076       8.51946505       5.85339848      -1.47166547      -1.04831356      -0.08188842
S        1.99608915       8.25896973       5.81526373       0.52976257       0.69366112       0.44317583
S        6.19636848       8.35904441       5.84740271       0.47692687      -0.11580033       0.75365931
S        2.10182019       1.19909785      12.68464448      -1.44475168      -0.46150243      -0.40900164
S        6.21059103       1.41732723      12.58647823       0.54740072      -0.92221771       0.16450015
S       10.55221404       1.16972015      12.56558497      -1.13921700       0.10144965       0.98588120
S        0.06951184       4.79416342      12.52065457      -0.34331381       0.40123403       1.19742471
S        4.24548352       4.61251968      12.56117337      -0.50938703       1.10664210       0.20478202
S        8.21498216       4.76349838      12.58491921       0.40506025       0.30592172       0.32228370
S       -2.20344384       8.44876796      12.66181578       1.84070103      -0.81942229      -0.48464563
S        2.05943507       8.34400076      12.61009458      -0.28909708       0.37546615       0.64525622
S        6.25022793       8.48214007      12.60398894      -0.14454585      -0.72135175       0.14962357
