72
Lattice="12.39778545 0.0 0.0 -6.19889272 10.73679715 0.0 0.0 0.0 13.44794642" Properties=species:S:1:pos:R:3:forces:R:3 ref_energy_eV=-268.79546735 ref_gap_eV=2.2028 energy=-242.00252616 stress="-0.006436166971935383 0.0006482585605832852 -0.00013882635479285605 0.0006482585605832852 0.0006382135257281617 0.0008290465000898358 -0.00013882635479285605 0.0008290465000898358 0.0016119872032026097" free_energy=-242.00252616 pbc="T T T"
Cd       0.01838083       2.30283061       0.06407503       0.02242921       0.21796852      -0.44857455
Cd       4.28932847       2.34610753       0.07563260      -0.09186158      -0.55870372       0.34680927
Cd       8.35670404       2.23151284       0.01180783      -0.04569152       0.67617558       0.32800050
Cd      -1.97398011       5.93855042       0.16688014       0.48129479       0.11224685      -0.45867952
Cd       2.17413951       6.02788186      13.29614156      -0.07019776      -0.64201799       0.65263957
Cd       6.35361244       5.73226573      13.39617532       0.45191536       0.38553640       0.37675772
Cd      -4.11833381       9.76140723       0.14073679       0.16135473      -0.62204795      -0.58923713
Cd       0.03295660       9.40469722      13.35524098       0.39244482       0.14772939      -0.62751749
Cd       4.31904256       9.41399325      13.40842882      -0.63527158       0.31059087      -0.22528459
Cd      -0.11976595       2.65470294       6.60856199       0.12136727      -0.19271646       0.03704008
Cd       4.16456912       2.27511787       6.60084812      -0.72867575       0.74559429       0.34179749
Cd       7.88307696       2.22829126       6.57740566       0.36060687       0.00709161      -0.08373904
Cd      -2.27977155       6.09503591       6.81719532       0.15829548      -0.41034208       0.21889611
Cd       2.17444703       5.91180645       6.92231912      -0.37964865       0.65539093       0.47185732
Cd       6.06433361       5.77636852       6.71128709       0.60622503       0.54976764       0.55061406
Cd      -4.40044083       9.56042555       6.80572018      -0.11149164       0.16124320       0.01108116
Cd      -0.17469961       9.36854621       6.87441404      -0.35091324       0.30580905       0.37771425
Cd       3.81317813       9.55142350       6.61525867       1.61735854       0.72055423       0.47301916
Cd       2.10550493       1.14179256       3.34998364      -0.19329349      -0.46008802       0.11373009
Cd       6.14553693       1.10913273       3.11074440       0.17871800      -0.10769329       0.24726999
Cd      10.34095230       1.14567273       3.38850999       0.17320535      -0.04169929      -0.55420117
Cd       0.11055515       4.73967557       3.36769418       0.07120712       0.51732860       0.20195855
Cd       4.21941916       4.87298407       3.36511957       0.24973988      -0.05819950      -0.07076330
Cd       8.21279179       4.75524897       3.43689301       0.19670787      -0.03958776      -0.42325397
Cd      -2.00780015       8.36368690       3.29773084      -1.16309914      -0.85015108       0.99573809
Cd       1.87920066       8.30941947       3.37202523       0.71964033       0.01012143       0.18657192
Cd       6.00944391       8.36046027       3.40245995       0.63580344      -0.00193258       0.25272396
Cd       2.12032822       1.48156194       9.94518685      -0.68465454      -0.65768188       0.52725915
Cd       6.37836332       1.38918780      10.20472159      -0.36969143      -0.36455215      -0.09202677
Cd      10.32699847       1.13934597       9.93748010       0.13041399       0.51253201       0.15392469
Cd       0.11765623       4.98453102      10.07789616      -0.04921087      -0.49595903       0.01327407
Cd       4.19833319       4.68084640      10.27472460       0.21015003      -0.38653944      -0.15760153
Cd       8.30651768       4.83650613      10.08108292       0.09786781      -0.39523322       0.13697416
Cd      -2.10429930       8.47792062      10.18227508       0.15592090       0.21536698      -0.34474408
Cd       2.14666348       8.65056542       9.90761732       0.48497500      -0.44892022       0.61585783
Cd       6.37669495       8.27542656      10.11870933      -0.48233338       0.04330295       0.43241042
S        0.04700949       2.38178483       2.59850406      -0.21608134      -0.25643325      -0.26125468
S        4.06070513       2.45511072       2.61541956       0.58674033      -0.17808103      -0.30211529
S        8.32862305       2.38522061       2.54262246      -0.61563315      -0.24422251      -0.10810062
S       -2.07216555       5.88586399       2.62417941       0.31040907       0.07362129       0.33793194
S        2.21348462       5.98806960       2.50705439      -0.73428042      -0.01071736      -0.24912285
S        6.29108049       6.04941698       2.58221913      -0.22051832      -0.54115478      -0.62266283
S       -4.14976653       9.40059050       2.59261803      -0.29335873       0.62234424       0.16715569
S       -0.11259811       9.30251018       2.33413128       1.05340782       1.44988773       0.40337310
S        4.11928473       9.52902343       2.47822630      -0.87641633       0.22360922       0.01498310
S       -0.01242277       2.43486756       9.17906675      -0.13086258       0.76084498      -0.05331913
S        4.23623365       2.21834598       9.16706312       0.62764254       1.20216664      -0.04652032
S        8.28701875       2.40306441       9.11348811       0.33039450       0.44947996      -0.12568057
S       -2.04420507       6.08749159       9.42270844       0.11409056      -0.08652774      -0.79879524
S        2.31061458       6.12885993       9.51890725      -0.46273010      -0.26889311      -0.81260834
S        6.20708419       5.93876258       9.34202991      -0.09637775      -0.35239134      -0.47280440
S       -4.18037040       9.67950469       9.41625652       0.48535888       0.19760841      -0.72606996
S        0.05879167       9.69811660       9.36186375      -0.72741291      -0.05994586      -0.17917891
S        4.35102568       9.56591968       9.20878685      -0.28359250      -0.35082523      -0.51151599
S        1.99671443       1.27551797       5.85663110      -0.64563470      -0.26673954       0.36799162
S        5.89370772       0.89193000       5.74756570       1.20993533       0.17806557      -0.59703920
S       10.20132194       1.29148284       5.79197176       0.02330625      -0.11538020       1.05671983
S        0.00616251       5.14635570       5.98058337      -0.43630322      -0.69425412      -0.30528893
S        4.04550947       4.80315302       5.87440242      -0.10146564      -1.02712013      -0.09896202
S        8.15541465       4.70557293       5.87205710       0.23837644      -0.16406115       0.80201528
S       -2.26666473       8.41548024       5.98104773      -0.23996894       0.00786675      -0.57499189
S        1.86562217       8.44625920       5.96064800      -0.26391506      -1.29103334      -0.70188418
S        5.97449306       8.18363253       5.90341462       0.13265833       0.73709454       0.38653943
S        2.24285064       1.29892591      12.56032574      -0.67168926      -0.20005762       0.04773100
S        6.31044595       1.13064154      12.66233689      -0.35122766      -0.15230925       0.18586928
S       10.28319784       1.15907290      12.48344303       1.14534769      -0.56922203       0.23806525
S        0.15473025       4.76253067      12.60961166      -0.51595139      -0.31258286       0.26589972
S        4.22319825       4.64673592      12.82267675       0.01786612       0.57919567      -0.69413421
S        8.53674524       4.68508261      12.62412388      -0.77912051      -0.29621022      -0.07341883
S       -1.99736741       8.29607235      12.62038884      -0.84742578       0.05630173       0.56326317
S        2.11801690       8.27858629      12.54517314       0.44530955       1.15748752      -0.34994835
S        6.31873865       8.19857149      12.68908647       0.46751564       0.18230354      -0.16041812
