72
Lattice="12.39778545 0.0 0.0 -6.19889272 10.73679715 0.0 0.0 0.0 13.44794642" Properties=species:S:1:pos:R:3:forces:R:3 ref_energy_eV=-269.26239767 ref_gap_eV=2.1934 energy=-242.41720515 stress="0.0006262500257299973 -0.0007037102872197897 -7.744219856238212e-05 -0.0007037102872197897 -0.0008025206105915986 -0.0017751354520326801 -7.744219856238212e-05 -0.0017751354520326801 -0.00291163887266729" free_energy=-242.41720515 pbc="T T T"
Cd      -0.18594986       2.34222704       0.18826991       0.12715576       0.10873912      -0.80015052
Cd       3.98450747       2.21297597      13.35013991       0.27774026       0.04268728      -0.47310914
Cd       8.02725403       2.37124312      13.40099480       0.80634028       0.07921895      -0.17509895
Cd      -2.06664643       5.86087882       0.02412051       0.52524852       0.01888182      -0.51295452
Cd       2.19679237       5.92140096       0.03676359      -0.13734002      -0.17589332      -1.11778860
Cd       6.27605549       6.01183840       0.01601408       0.18385889       0.28801527      -0.14417446
Cd      -3.99091036       9.44131947       0.00373799      -0.96902702       0.81850101       0.27745970
Cd       0.11405449       9.21963865      13.43709729      -0.06927649       0.52242880       0.00557347
Cd       4.19107156       9.59900770       0.09774465      -0.18280625      -0.23848225      -0.69751153
Cd      -0.11277974       2.40468019       6.64058976       0.15352092       0.50733009       0.33266391
Cd       4.10829936       2.45183127       6.55350341      -0.03636510      -0.03540822       0.72580510
Cd       8.02715578       2.47502060       6.68517185       0.60698585       0.06997680       0.54072109
Cd      -1.98783346       6.07274847       6.87845865      -0.20934174       0.22151591      -0.35004677
Cd       2.19126655       5.83746412       6.96271312      -0.36710072       0.37958035      -0.38348123
Cd       6.32030728       5.99104122       6.69928130      -0.02642255       0.21765725      -0.09347217
Cd      -4.25072065       9.81945669       6.69676102      -0.19495073      -1.47188388       0.76694539
Cd      -0.04310034       9.55156866       6.76925460      -0.33461739      -0.21064200       0.03167228
Cd       4.01837041       9.39874947       6.57270452       0.87294116       0.80501697       0.61244994
Cd       2.03660635       1.47256794       3.38897515      -0.27118754      -0.43764898       0.09818266
Cd       6.21653310       0.94395290       3.15866293       0.09908533       0.75089825       0.34758549
Cd      10.31228360       1.45403387       3.55017797       0.02917395      -0.03113592      -0.64683894
Cd       0.03678126       5.05240304       3.45529101       0.78481810      -0.54229227       0.12603723
Cd       4.17911662       4.63836627       3.32881832       0.09585591      -0.07634246      -0.02961230
Cd       8.28639105       4.83142000       3.36205102      -0.18508054      -0.16979512       0.27952033
Cd      -2.12465882       8.32009078       3.35008100      -0.41074741       0.12285837       0.30414510
Cd       2.31371781       8.28610098       3.39146276      -0.16594774       0.13593257      -0.51628313
Cd       6.26653579       8.43418986       3.22809535      -0.35413939       0.14930560       0.16478756
Cd       1.94221674       1.28973156      10.09290299       0.55367567       0.31116860      -0.16481614
Cd       6.35037445       0.92554176      10.05116312      -0.17349417       0.73092402      -0.05225083
Cd      10.40233107       1.35556112      10.11776327      -0.57636283       0.20076139       0.17928840
Cd       0.05758257       4.73522420      10.04809739      -0.14956580       0.55817290       0.63273288
Cd       4.34511937       4.57714827      10.14862980      -0.62784684       0.13386122       0.31608630
Cd       8.13528765       4.85046761      10.10621847       0.38669371       0.15129079      -0.00449587
Cd      -2.30143916       8.18070815      10.14476446      -0.05472444       0.71386650      -0.30498550
Cd       2.19810102       8.42361272      10.02350997       0.06431454       0.24835107      -0.45403538
Cd       6.12366762       8.30860423      10.05828313       0.16768427       0.57187487      -0.34567083
S        0.01931296       2.57520415       2.59241321      -0.56573306       0.28251362       0.56859077
S        4.09164045       2.21648454       2.38964440       0.97024947       0.66471927       0.46906770
S        8.23617233       2.44700798       2.42977630      -0.23582285      -0.13862483       0.66389735
S       -1.98935615       5.86926619       2.49641303      -0.87486375       0.86035712       0.10675482
S        2.19577290       5.93551019       2.42621999      -0.09691007       0.14254723       1.20600716
S        6.18960567       6.00818606       2.53237028       0.14710345      -0.00774774       0.13569478
S       -4.17549380       9.82228036       2.58762897       0.51417439      -0.97262033      -0.51538502
S        0.03167690       9.32542981       2.53921273       0.27173710      -0.30183685      -0.17002594
S        4.13322938       9.81464392       2.52125287       0.18800163      -0.48754388       0.60224933
S       -0.04684881       2.47422694       9.23162012       0.40870338      -0.10212521      -0.84328346
S        4.17342579       2.31477670       9.19470066       0.06407389      -0.37178233      -0.06193021
S        8.31165650       2.55386144       9.30808595      -0.55513745      -1.09339516      -0.47109354
S       -2.06943413       5.92433511       9.30989819      -0.11353672      -0.43838331       0.30795214
S        2.12272633       5.95050982       9.41569749       0.61860467       0.00413320      -0.04097751
S        6.14987728       5.98033599       9.20343013      -0.00526320       0.29443533      -0.06180801
S       -4.16970366       9.69706826       9.34733459      -0.17035064      -0.90989160      -0.70536148
S       -0.14831278       9.31023295       9.32738308       0.68052844       0.17731338      -0.45315448
S        4.27400859       9.82947230       9.22070361      -0.68584238      -1.35608347      -0.66899715
S        1.99347414       1.27622918       5.86828051      -0.00328991       1.15780916      -0.16296533
S        6.12838652       1.19050552       5.86462482      -0.04542191      -0.42025506      -0.65123638
S       10.22257459       1.28676208       5.97125655      -0.37708546      -0.53869210       0.25738055
S       -0.00131144       4.91729548       5.95520132       0.50270000      -0.34760161       0.03244907
S        4.22107730       4.85447867       5.91425474      -0.14384082      -0.19921169      -0.54750582
S        8.38205404       4.84692812       5.98054155      -0.07918539      -0.17668839      -0.66872269
S       -2.28917923       8.41008629       5.97131935       0.69291434       0.06556075      -0.41978997
S        2.02141776       8.33690009       5.82747756      -0.72605839      -0.64834020       0.53231916
S        6.18211071       8.33265326       5.78994461       0.04854527       0.42904164       0.22915947
S        1.84902258       1.18324723      12.54511840       0.30114461      -0.26353922       0.73904092
S        6.22797836       0.98598832      12.61170013      -0.88977240      -0.27204032      -0.10715416
S       10.25424405       1.16668980      12.57681884      -0.22075834       0.39336856       0.47875940
S        0.10273896       4.70509170      12.63065528      -0.29941724       0.18338389       0.04141674
S        4.30638392       4.70599230      12.73671183      -0.40579492      -0.38934359      -0.53518725
S        8.29921222       4.74526536      12.58447436      -0.22539601       0.09101779       0.26266851
S       -2.07191083       8.30227392      12.59513737       0.48214936      -0.58256952       0.36119071
S        2.17278796       8.25354915      12.48821584       0.38996734       0.09936483       0.69724928
S        6.20111733       8.41308508      12.51367670       0.20013517      -0.29654071       0.91785054
