structure_id,formula,band_gap,homo_energy,lumo_energy,bs,calculation_time
0,Cd36S36,1.856270434369169,3.5563699309209285,5.412640365290097,,719.6185586452484
1,Cd36S36,1.7687642617439914,3.626405407002497,5.3951696687464885,,879.4466898441315
2,Cd36S36,1.7608654272162805,3.6290552975262185,5.389920724742499,,783.3841454982758
3,Cd36S36,1.71542544345556,3.657813317670371,5.373238761125931,,790.5567100048065
4,Cd36S36,1.8477714262870308,3.562415025390616,5.410186451677647,,732.5362403392792
5,Cd36S36,1.743486335607229,3.638156275667595,5.381642611274824,,763.4484176635742
6,Cd36S36,1.8153665978508855,3.591120051031645,5.406486648882531,,786.7984972000122
7,Cd36S36,1.835932888214428,3.5780302170670053,5.413963105281433,,804.1602854728699
8,Cd36S36,1.815131846230718,3.58194941782018,5.397081264050898,,838.2249865531921
9,Cd36S36,1.7975827519819163,3.6013889816010285,5.398971733582945,,763.4196751117706
10,Cd36S36,1.7944165494702955,3.5959222420002592,5.390338791470555,,837.9136233329773
11,Cd36S36,1.861858605523247,3.551842250541116,5.413700856064363,,803.8697400093079
12,Cd36S36,1.7470008471166412,3.63666083252036,5.383661679637001,,845.7103087902069
13,Cd36S36,1.8673793459982324,3.547542341838459,5.414921687836691,,803.3816874027252
14,Cd36S36,1.7875141316359775,3.5993894076797632,5.386903539315741,,791.1874589920044
15,Cd36S36,1.8414308295829291,3.570907994135408,5.412338823718337,,745.090452671051
16,Cd36S36,1.843402746913688,3.564135796271667,5.407538543185355,,821.9036800861359
17,Cd36S36,1.818491251732003,3.593192479546804,5.411683731278807,,869.1743576526642
18,Cd36S36,1.8148524575581773,3.5840379359854744,5.398890393543652,,798.7242896556854
19,Cd36S36,1.8002635014031796,3.602238544248877,5.4025020456520565,None,859.1051278114319
20,Cd36S36,1.8379219526874233,3.5758778753706877,5.413799828058111,None,940.1252346038818
21,Cd36S36,1.7967600010474523,3.607707366110857,5.404467367158309,None,866.2046294212341
22,Cd36S36,1.767806011892795,3.622166229328076,5.389972241220871,None,970.9383239746094
23,Cd36S36,1.7193670689642127,3.675187828001851,5.3945548969660635,None,932.9113438129425
24,Cd36S36,1.8153575774640212,3.5858824446676705,5.401240022131692,None,828.8404161930084
25,Cd36S36,1.8637609645213442,3.5529798144693854,5.41674077899073,None,843.6594653129578
26,Cd36S36,1.7840473218187016,3.6192680138371465,5.403315335655848,None,897.8661065101624
27,Cd36S36,1.8184285269794311,3.5674502744544836,5.385878801433915,None,889.1366019248962
28,Cd36S36,1.8580274199042455,3.561566437402317,5.4195938573065625,None,911.215300321579
29,Cd36S36,1.8150576382054018,3.5959148911941448,5.4109725293995465,None,826.886712551117
30,Cd36S36,1.7930609153962052,3.5977124807140552,5.39077339611026,None,879.628940820694
31,Cd36S36,1.7579125294640554,3.629253934445805,5.38716646390986,None,987.109735250473
32,Cd36S36,1.8417623800191234,3.5674705561251208,5.409232936144244,None,940.919718503952
33,Cd36S36,1.815602477052801,3.582108364547058,5.397710841599859,None,868.6704699993134
34,Cd36S36,1.8582077610820957,3.567034996310332,5.425242757392428,None,987.9096150398254
35,Cd36S36,1.8378499020403773,3.560729159628331,5.398579061668708,None,834.3500320911407
36,Cd36S36,1.812714231720507,3.5923859751305174,5.405100206851024,None,979.3830902576447
37,Cd36S36,1.7837439653324352,3.60605707400935,5.389801039341785,None,887.702219247818