72
Lattice= "12.39778545 0.0 0.0 -6.19889272 10.73679715 0.0 0.0 0.0 13.44794642" Properties=species:S:1:pos:R:3:forces:R:3 energy=-241.28487356 stress="-0.00579892919381189 0.002260918791956448 0.00023180501773553282 0.002260918791956448 -0.005852157251750606 -0.0002796679555692591 0.00023180501773553282 -0.0002796679555692591 -0.005552682722057107" free_energy=-241.28487356 pbc="T T T"
Cd       0.03335525       2.37898264      13.20553118      -0.44951816       0.28638862       0.73081534
Cd       4.27580236       2.44622859       0.05097848      -0.33364692      -0.00956617      -0.11838764
Cd       8.30386895       2.40415678      13.44089217       0.31400962       0.05017701       0.09894971
Cd      -1.95833987       6.02053113       0.21398453      -0.41392279       0.00879737      -0.60421553
Cd       2.01034778       5.93173255      13.41735799       0.16726914       0.50116774       0.77252704
Cd       6.27840586       6.13298168      13.37282216      -0.23629804      -1.22992752       0.25138275
Cd      -4.13029767       9.54593367       0.00226544       0.05158992       0.31082978      -0.21885556
Cd      -0.03697199       9.51505539       0.01041436       0.56724168       0.40114622       0.47140217
Cd       4.15567632       9.43649049      13.43919234      -1.13995849       1.51169974       0.75448422
Cd      -0.00720888       2.42879977       6.75302508       0.01232506      -0.98916597      -0.90475638
Cd       4.17138009       2.38455804       6.66809538      -0.04500162       0.34291012       0.21968758
Cd       8.24081778       2.36282569       6.73294111       0.15910622      -0.03562338       0.54473526
Cd      -2.03211221       5.91498916       6.50079002      -0.39101400      -0.51729682       0.84848727
Cd       2.08462774       5.94957346       6.72627899      -0.04513279       0.05405362      -0.00590268
Cd       6.38135032       5.89577953       6.75451995      -1.19453707       0.54617411       0.20540046
Cd      -4.21857722       9.44065250       6.58463030       0.71046504       0.35927601       0.28106815
Cd       0.01513268       9.56024764       6.73593543      -0.47379571       0.08690647      -0.18811653
Cd       4.13222876       9.54455034       6.72248331       0.00181582      -1.21546850       0.69041830
Cd       2.08775465       1.20505377       3.37485871      -0.01444849      -0.23821872      -0.09505975
Cd       6.36919769       1.12911111       3.27814283      -1.06303223      -0.12192943       0.41522363
Cd      10.32590598       1.15311977       3.35308810       0.23253702      -0.06499788       0.36534687
Cd      -0.09437182       4.61144385       3.41971958       0.44638428       0.90968380      -0.03900123
Cd       4.12802058       4.75539166       3.39274542       0.74284141       0.01844098      -0.14173072
Cd       8.37817118       4.77754071       3.22782882      -0.76059184      -0.16651280       0.67952842
Cd      -2.05695799       8.38473145       3.33763224      -0.26262632       0.88555155       0.54449883
Cd       2.17962739       8.31311937       3.55838727      -0.35239253      -0.18949929      -1.61344788
Cd       6.22196662       8.34566411       3.36360466       0.13333318      -0.11594995      -0.19431719
Cd       2.07020980       1.09467327      10.08875080       0.03863561       0.58351856       0.22619998
Cd       6.20439344       1.08779162      10.11889209       0.05308688       0.49804624      -0.19877760
Cd      10.28050864       1.19978984      10.10457137       0.50668836      -0.03996670      -0.22108716
Cd      -0.05332802       4.75873929      10.01841589      -0.28505597       0.13967655      -0.25760412
Cd       4.07498756       4.81306544      10.11852361       0.24760973      -0.60291954      -0.61721277
Cd       8.14904026       4.82627417      10.28309904       0.51415764       0.06098533      -4.53501909
Cd      -2.08519357       8.36072011      10.09634916       0.01530278       0.07863217      -0.40705592
Cd       2.08859442       8.34631046      10.08713059       0.21164272      -0.24166358       0.62734171
Cd       6.19906915       8.35401369      10.09304379       0.24728182      -0.11385261       0.30546248
S        0.00972482       2.40114553       2.51209764      -0.22557450      -0.82964150      -0.53585094
S        4.15875202       2.41006062       2.58934802       0.38062270      -0.45764135      -0.29290115
S        8.26449142       2.38639801       2.53222948       0.79612495       0.28231286      -0.28247446
S       -2.08635240       6.12414777       2.70057800       0.72792433      -1.57453279      -0.76133949
S        2.12817280       5.89675046       2.70623838      -1.09739787       0.43185051      -0.91162778
S        6.29415830       5.94894750       2.48190243      -0.37789729      -0.05090849      -0.01144819
S       -4.05617286       9.46927283       2.45665969      -0.68371672       0.67848715       0.56330739
S       -0.05232082       9.47591204       2.63526805       1.19234508       0.26415883      -0.67692757
S        4.12739102       9.48909672       2.53351860       0.09689147       0.29657505       0.18396449
S        0.11907236       2.35076172       9.10791622      -0.65937040       0.15295613       1.73957655
S        4.10927413       2.25683589       9.23567561       0.41499958       0.66436077       0.08207366
S        8.28502959       2.39134939       9.32106133      -0.40577559       0.22769723      -0.31837318
S       -2.15200958       6.05158162       9.12614048       0.13750536      -0.55385170       0.27638507
S        2.06753231       5.99552330       9.26653206      -0.33152822      -0.22557533      -0.19019700
S        6.19307234       5.95597925       9.25694247      -0.29629009       0.16422418       0.10368964
S       -4.19239669       9.60108817       9.18194502       0.27262198      -1.02332520      -0.04778435
S        0.12389486       9.49767058       9.25907141      -0.94234361       0.04292373      -0.12665561
S        4.14223266       9.48430789       9.36700127       0.08134862       0.45771479      -0.53608837
S        2.13670966       1.16199427       5.89780024      -0.49620038      -0.11928338      -0.11354689
S        6.23183191       1.24020379       5.85898946      -0.18768529      -0.57042544      -0.18373427
S       10.26925300       1.04756750       6.07687497       0.42771526       1.58470876      -1.17307327
S       -0.00385912       4.68397296       5.92077484       0.38280246       0.52912005      -0.25357093
S        4.16075494       4.85677323       5.86550432       0.26256309      -0.32872326       0.60451142
S        8.22094798       4.71065036       5.92970159       1.09630413      -0.44525071      -1.05568250
S       -2.08343637       8.18727348       5.80487237       0.10370712       1.50090705       0.49086379
S        2.02842015       8.36356450       5.87941178       0.12939197      -0.20029569       1.55007783
S        6.16780677       8.29519494       5.88604539      -0.40443797      -0.28714961      -0.09183894
S        2.04093379       1.21862830      12.62608284       1.04364132      -0.27825384      -0.11610772
S        6.32847450       1.21515162      12.63763180      -0.79223163      -0.40978029       0.06948973
S       10.33765927       1.19195745      12.62720211       0.01933707      -0.26573544       0.07114658
S       -0.02504830       4.81693488      12.60411737      -0.38735709      -0.07200604      -0.19312436
S        4.02293955       4.82446577      12.55188904       0.89715008      -0.19343472       0.71186892
S        8.20347981       4.68677462      12.42134149       0.46174950       0.59649500       5.07139031
S       -2.03979561       8.42052256      12.61703425      -0.42848014      -0.62656458      -0.04544544
S        2.13265435       8.41641434      12.72415670      -1.09482619      -0.68188791      -0.58594151
S        6.10484517       8.45078412      12.82756481       1.97401597      -0.42172791      -1.68702386
72
Lattice="12.39778545 0.0 0.0 -6.19889272 10.73679715 0.0 0.0 0.0 13.44794642" Properties=species:S:1:pos:R:3:forces:R:3 energy=-237.59403579 stress="-0.013062299348463943 0.002092726704703642 0.005628359865529254 0.002092726704703642 -0.0062818220097198415 -0.001788457603737367 0.005628359865529254 -0.001788457603737367 -0.01380011892756237" free_energy=-237.59403579 pbc="T T T"
Cd       0.00438293       2.18024098      13.41203435      -0.04793713       1.17383976       0.27541125
Cd       4.23603665       2.30249777      13.42635709      -2.33797845       2.24133596       0.20594892
Cd       8.26495478       2.38604251       0.00169054      -0.78679577       0.64377267       0.07707236
Cd      -2.10891178       6.10805460       0.02706628       0.40108106      -1.72034992       0.43422744
Cd       2.02553135       6.06426522      13.41078759       0.09721369      -0.37717179       0.02975021
Cd       6.24152499       5.96736090       0.12771098      -1.15442406      -0.03112624      -2.53900064
Cd      -4.14526831       9.47433179      13.38282111      -0.33567962       0.77896850       0.68199176
Cd      -0.16276147       9.66022967       0.08690318       0.23847633      -0.89658692      -0.03872152
Cd       4.24081278       9.63251692      13.29854350      -0.98297812      -0.82253738       0.62144943
Cd       0.08529670       2.46642601       6.79461191      -0.20181750      -0.30837964      -0.21910979
Cd       4.06945790       2.40545550       6.96368891       0.33692488       0.25365137      -1.75382985
Cd       8.42083890       2.25760626       6.75162407      -1.49565387       0.73640605       0.52835439
Cd      -2.17268537       5.84920137       6.81697060       0.98962882       0.74499869      -0.60419533
Cd       2.13832293       5.76447258       6.81015626      -0.47401858       0.90368895      -0.14338540
Cd       6.16125361       5.92218872       6.72179868      -0.08310352      -0.96616567       0.43774620
Cd      -4.02868455       9.65840463       6.92102570       0.12023483      -0.06835847      -3.52018048
Cd       0.10918420       9.48688107       6.68214068      -1.38061962       1.00398335      -0.02861546
Cd       4.22754052       9.43081491       6.79275461      -0.69898913       0.25100122      -0.58424560
Cd       2.06765623       1.18699534       3.36508985      -0.25756728       1.08479404      -0.24668239
Cd       6.22345299       1.39333285       3.33714314      -1.15042903      -1.58494805       1.27414886
Cd      10.39379396       1.25090183       3.57318862      -0.28401507      -0.30534136      -3.90530853
Cd      -0.03431577       4.96296713       3.25826663      -0.50122467      -1.27968094       0.71900517
Cd       4.13574068       4.76387717       3.36280330       0.35418381      -0.34326052      -0.74356699
Cd       8.22907764       4.59371858       3.43273047       0.11093499       0.62708143      -0.61310254
Cd      -2.02577186       8.24004452       3.35939182       0.20964588       1.72781590       0.95499708
Cd       2.18503543       8.23603346       3.25657595      -1.77539765      -0.52981146       0.87902750
Cd       6.17238056       8.54046977       3.25348118       0.13199410      -0.39370401       0.36179563
Cd       2.03714689       1.20674331      10.11407987       0.34896747      -0.46859058       0.30641821
Cd       6.13748501       1.12564818       9.99104945       0.00251000      -0.12809383       0.97754815
Cd      10.34923551       1.34175886      10.28567702      -1.18807835      -0.73285757      -0.90344571
Cd       0.02402840       4.77520814       9.99092170      -0.43915776      -0.49368953       0.71449051
Cd       4.14531016       4.75148712       9.99661058      -0.19546614       0.15969151       0.41466999
Cd       8.17964234       4.79751802       9.95114361       0.52669424      -0.27803152       0.87590745
Cd      -1.94892939       8.40762960       9.99879816      -1.10883866      -0.41071552       0.57940099
Cd       2.09410133       8.42722350       9.99713963      -0.23272462      -0.00884146       0.33598838
Cd       6.09404943       8.19371255      10.15836638       0.13126954       2.81043050       0.19674940
S       -0.17715251       2.45258349       2.44975444       0.85203287      -0.04711183       0.28436345
S        4.19658194       2.27247447       2.38959411      -0.97796411       0.95277613       1.04839400
S        8.17391989       2.26649031       2.53335629       1.94440091       0.82404101      -0.56318605
S       -2.02275169       6.09216639       2.60582942      -1.28475566      -2.07006775      -0.93392722
S        2.01469853       5.84519032       2.60068531       1.30440276       0.62783784      -0.95060473
S        6.23505763       5.98555472       2.34815198      -0.19381995       0.17494213       3.79008222
S       -3.95615670       9.64391392       2.67550821      -1.13043201      -0.88077367      -0.97701059
S       -0.03175940       9.49576513       2.53282415       0.51965237       0.35789645       0.57152721
S        3.92086474       9.58304841       2.60303507       2.10072737       1.00785231      -1.06680737
S       -0.06471210       2.17501012       9.34249265       0.61134989       1.39912440      -0.88964405
S        4.14798250       2.31344823       9.26123922      -0.61393526       0.60774509       1.61668016
S        8.12423738       2.34313258       9.36318676       1.12067422       0.40355224      -0.38545206
S       -2.08580540       5.97545580       9.25494518      -0.02752243      -0.15601804       0.49434122
S        1.99230280       6.02536258       9.30805300       0.73095901      -0.35905781      -0.40027281
S        6.22087301       6.10342596       9.40616975      -0.43043908      -2.70774744      -1.75479406
S       -4.12828979       9.57200551       9.12249931      -0.22670045      -0.28645005       3.73069194
S       -0.03163611       9.55880934       9.22225134       0.69853509       0.01494930      -0.22634871
S        4.14388962       9.53737794       9.24595536       0.19807502       0.70616630       0.55208532
S        2.16708405       1.36364818       5.83786368      -0.74320024      -0.75497888       0.40587455
S        6.13918549       1.36816880       6.03726781       0.51699129      -0.67574714      -0.57377633
S       10.30727384       1.35256136       5.73195989       1.29341861      -0.92371759       4.12909641
S        0.05317720       4.76579261       5.86174508      -0.56853520       0.21656813       0.13166468
S        4.09790598       4.72302494       5.81453163       0.60219628      -0.14569850       0.62370903
S        8.27227258       4.81450374       5.88679497      -0.59611960      -0.79480697       0.24644300
S       -2.04218163       8.33999132       5.90131176      -0.18353249      -0.03802853       0.35507834
S        1.98719578       8.35708978       5.94140776       1.74741519      -0.93735720      -0.58770391
S        6.18105517       8.17061266       6.06694138       0.65527116       1.76586150      -1.27255014
S        2.09791594       1.25140764      12.66759517       0.08001188      -0.80001157      -0.45054033
S        6.02375473       1.20173030      12.75570517       3.10360850      -0.82893746      -2.08689461
S       10.26269599       1.22793957      12.65347012      -0.05691420       0.01146535       0.48810275
S       -0.01051611       4.78367443      12.62065041      -0.39460606      -0.34402719      -0.11985159
S        4.10522024       4.84963701      12.52701989       0.12188221      -0.31590145       0.41341359
S        8.18716005       4.91436970      12.74198464       1.06187787      -1.27305919      -1.10069831
S       -2.18279204       8.29075892      12.69603664       0.78785155       1.34959071      -1.35431482
S        1.90103161       8.38316484      12.52183463       0.47379609       0.63685686       0.38780630
S        6.18674569       8.31501216      12.60238527       0.01648155       0.28905497       0.38631447
72
Lattice="12.39778545 0.0 0.0 -6.19889272 10.73679715 0.0 0.0 0.0 13.44794642" Properties=species:S:1:pos:R:3:forces:R:3 energy=-240.18705032 stress="-0.004261324551466081 0.002492140010135891 3.407569383501517e-05 0.002492140010135891 -0.008907790405076419 0.003879995400816674 3.407569383501517e-05 0.003879995400816674 -0.008776957001768278" free_energy=-240.18705032 pbc="T T T"
Cd       0.02974179       2.45106391       0.01196840       0.07726403      -0.09004328      -0.04168068
Cd       4.14768805       2.43827553       0.04229971      -1.03286126      -0.08077716      -0.03046366
Cd       8.25284680       2.38989391      13.43949748      -0.28331274      -0.14229254      -0.02902108
Cd      -1.97914930       6.07856609       0.18238562      -0.08997751      -0.28261607      -1.81128614
Cd       2.17106046       6.10006202      13.37662120       0.40283867      -1.59988202       0.76079966
Cd       6.16769730       5.95324802      13.43323141       0.49884707      -0.30806922       0.37817654
Cd      -4.18533460       9.36900381      13.34660955      -0.36568845       0.57448691       0.29294957
Cd      -0.08873281       9.58575452       0.00674441       0.19677818      -0.28109410       0.04413822
Cd       4.06944371       9.69286813      13.44523760      -0.05582853      -1.21246298      -0.42815289
Cd      -0.13677181       2.56023405       6.74247974       0.39357811      -1.16199638       0.00638390
Cd       4.18775775       2.36881521       6.83139446      -0.43710237       0.04825702      -0.62675579
Cd       8.28974168       2.58776481       6.77466430      -0.01125834      -2.12372738      -0.04947962
Cd      -2.15764908       6.10391449       6.69113507       0.44242925      -0.90047138       0.73555457
Cd       2.03133989       6.01831741       6.93348979       0.28455307      -0.41493236      -1.60854736
Cd       6.15014941       5.87856447       6.62731905      -0.03006625       0.95024043       0.61088129
Cd      -3.97285485       9.56469343       6.66277187      -1.43833095       0.31353394       0.41067595
Cd       0.02547225       9.47833050       6.83796002      -0.00330747       0.60580084      -0.81301053
Cd       4.18182517       9.48105067       6.72515461      -0.12430981       0.50879126      -0.23244298
Cd       2.09636690       1.21361486       3.37359407      -0.81894174      -0.46789241       0.06510281
Cd       6.18270816       1.18965881       3.34115668      -0.15952878       0.82637150       0.40773879
Cd      10.15886869       1.17383503       3.25586752       1.92572107      -1.00371800       1.51878823
Cd      -0.18511214       4.81042494       3.23788775       1.64884491      -0.93415011       0.54472378
Cd       4.17748873       4.69541248       3.16850051       0.04399558       0.64533521       1.01149517
Cd       8.34401664       4.70023620       3.57165125      -0.59301058      -0.18179604      -1.11906216
Cd      -2.15220379       8.28058999       3.38847314       0.41466333       0.93313939       0.07012552
Cd       2.08118860       8.38584464       3.36286099       0.28868167      -0.04750243       0.14137561
Cd       6.32992406       8.36598779       3.22930917      -3.05809589      -1.04828300       1.48768067
Cd       2.14598686       1.14864725      10.07790033      -0.08258083       0.24024904       0.10172051
Cd       6.18075706       1.26930813      10.10230593       0.91819699      -0.42481137       0.11120714
Cd      10.32988672       1.20667610      10.08331877       0.56566630      -0.13442545       0.21102877
Cd       0.11984351       4.60783554      10.20465663      -0.65872450       0.49598583      -1.40481684
Cd       3.92370210       4.86272356      10.16380245       1.79379003      -0.64257143      -0.37002490
Cd       8.26766004       4.77007756      10.08959695      -0.06304958       0.42493358       0.26986898
Cd      -2.02111940       8.39143368      10.07530433      -0.68424729      -0.54630223      -1.01018138
Cd       2.17518483       8.41792737      10.11477527      -0.06680660       0.12705952      -0.76417324
Cd       6.23007682       8.50288571      10.10907737       0.34124599      -1.17910074      -0.36505654
S       -0.11973422       2.21550223       2.52246520       0.67631203       1.02488520      -0.02987517
S        3.98772420       2.40381331       2.48259984       1.00762246      -0.52646204       0.13466597
S        8.37167523       2.30614667       2.54513884      -2.63126641       1.84717461      -0.73222569
S       -2.12015899       5.99118617       2.54927086      -0.56354494       0.00654150       0.38475357
S        2.19789850       6.02740085       2.48476321      -0.99993936      -0.20132068      -0.05152241
S        6.21575260       6.00259284       2.57092945       0.41465424      -0.74458534      -0.23785592
S       -4.25024761       9.41867707       2.59334368       3.01558477       2.00763831      -1.57628451
S        0.06645964       9.65570529       2.56075742      -0.72968498      -1.18505606      -0.38627953
S        4.12036383       9.63334301       2.41431614       0.17989407      -1.08471752       0.75538040
S        0.03738720       2.37551819       9.24236839       0.21493550      -0.42994729       0.00416125
S        4.22566560       2.37345093       9.27839799      -0.82786803       0.63830959       0.28148418
S        8.46276405       2.45831232       9.22741441      -1.26581740      -0.40185087       0.34930939
S       -2.05416266       5.95908326       9.31185137       0.44637871      -0.03391984      -0.39393374
S        2.06057449       5.96390655       9.28812704      -0.84255687       0.72279503       0.55310748
S        6.24833107       5.93427664       9.19223243      -0.58781965       0.29272029       0.37318367
S       -4.15588354       9.55914691       9.23027129       0.66494560      -0.03981392      -0.27031357
S       -0.04880797       9.49069929       9.23623989       1.01391436       0.73349215       0.72307513
S        4.28244417       9.59859723       9.23696191      -1.16441978       0.02445410      -0.05503405
S        2.09087697       1.14882806       5.83720769      -0.19687113       0.67401800       0.57236247
S        6.15497729       1.20221807       5.89215788       0.69495002      -0.22684155       0.05187481
S       10.33318782       1.23424315       5.89109980      -0.41194663      -0.31294757      -0.14877382
S        0.00236017       4.75985151       5.87748079      -0.12431474       1.34652073      -0.54582286
S        4.18316791       4.73080032       5.92725890      -1.20935617      -0.14009122      -0.65261133
S        8.21569200       4.74885993       5.95833294       0.56586713       1.37026330      -0.20393082
S       -2.07264274       8.38383138       5.91044359       0.90038676      -0.15774337      -0.62912958
S        2.04484028       8.35105269       5.95142285       0.22744110      -0.10773187      -0.34182153
S        6.20176926       8.35674019       5.90138008       0.51705053      -0.24474383      -0.41456000
S        2.07972919       1.19552765      12.62522190      -0.17559975      -0.38973903       0.07654738
S        5.99875323       1.21013743      12.68379322       1.71789225      -0.35658539      -0.63481780
S       10.32487169       1.18817209      12.62609575       0.02799019       0.85839881      -0.47117615
S        0.16240454       4.82871175      12.51661198      -0.69353095       0.03055003       2.02111141
S        4.23714334       4.69017475      12.58329941      -0.62243156       0.57934842       0.24677969
S        8.28913673       4.75381475      12.67895882       0.34507275       0.36741141      -0.03242788
S       -2.10138830       8.39325797      12.43947497       0.23627028      -0.44890185       1.74099319
S        1.97641045       8.23240980      12.51729675       0.04545696       2.18239505       0.35794373
S        6.08348887       8.22028441      12.52438382      -0.04571615       0.84081629       0.70540276
72
Lattice="12.39778545 0.0 0.0 -6.19889272 10.73679715 0.0 0.0 0.0 13.44794642" Properties=species:S:1:pos:R:3:forces:R:3 energy=-240.62798181 stress="-0.0009478390773432513 0.0026000762999025284 0.0007162971142513378 0.0026000762999025284 -0.005434489385853358 -0.0012099470650320952 0.0007162971142513378 -0.0012099470650320952 -0.010962694956333743" free_energy=-240.62798181 pbc="T T T"
Cd      -0.02616565       2.42956734       0.13787359      -0.25283542      -0.24645680      -0.77536667
Cd       4.11717338       2.35395151      13.43747101      -0.13575381       0.16327645      -0.12706594
Cd       8.21774464       2.46420768       0.16864639       0.26286662      -0.00952748      -0.70784341
Cd      -2.09662086       6.00160140       0.22808470       0.09710692      -0.34145509      -1.84625227
Cd       2.06274063       5.96658538       0.01488177      -0.00548248       0.31047662      -1.60260054
Cd       6.20247271       5.94413441      13.43848323       0.03488230       0.00171196      -0.80944527
Cd      -4.04688091       9.49608122      13.39933895      -0.80007400       0.61572926       0.36727483
Cd      -0.08654615       9.53726381       0.11345414       0.70073744       0.69782559      -0.43151828
Cd       4.28506364       9.70871951       0.06339765      -1.19544425       0.05009380      -0.11346779
Cd       0.02817558       2.44059231       6.68721540       0.45307304      -0.69780694       0.31979395
Cd       4.04734682       2.50937954       6.88426493      -0.43667304      -1.25058712       0.35344770
Cd       8.26235875       2.39098154       6.72692826      -0.25143162      -0.12475450      -1.05090141
Cd      -2.05426742       5.93943814       6.71603031      -0.32918733       0.32661790      -0.18104688
Cd       2.05785448       5.93094834       6.63820947       0.90521042      -0.38013981       0.57010907
Cd       6.24868205       5.89858216       6.57089308      -1.07373235       0.74759681       1.47609430
Cd      -4.13362530       9.52776819       6.67280337      -0.60915755      -0.58353966      -0.51170742
Cd      -0.04166653       9.70756187       6.69400567       0.09825232      -0.47879639       0.22437354
Cd       4.22625046       9.55588346       6.73591956      -0.31238195       0.19104623      -0.11915092
Cd       2.15200933       1.05238564       3.33131480       0.21179278       1.57071829       1.08427611
Cd       6.20566365       1.17736110       3.38920175      -0.04023095       0.21355288       0.16083334
Cd      10.55516862       1.23710032       3.32325302      -0.70530952      -0.92214505       0.49615195
Cd      -0.16943396       4.82015474       3.37606015       0.64990434      -0.17226878      -0.19859158
Cd       4.08088823       4.82022807       3.38247791       0.04582993      -0.17271435      -0.24784662
Cd       8.12491430       4.75550193       3.30491487       0.41354143      -0.24576502       0.38767963
Cd      -1.86259053       8.34123894       3.33332190      -0.81757164       1.02792834       0.92131178
Cd       2.10131076       8.16238000       3.45740503       0.32867362       1.11088648       0.28963172
Cd       6.21464244       8.37199492       3.32221713       0.24370785       0.25294722      -0.05056535
Cd       2.00277905       1.23369514      10.20084939       0.77353610      -0.64995844      -0.68298999
Cd       6.14477484       1.07144571      10.09978592       0.22201236       0.77299319      -0.18792547
Cd      10.34572372       1.22026491      10.08533798      -0.18683648       0.15372845      -1.41209426
Cd       0.00147249       4.72993665      10.22031327      -0.09764360       0.07815079      -0.98177584
Cd       3.97782103       4.76977532      10.01548545       1.26522199       0.20223069       0.73601192
Cd       8.27339644       4.78428761      10.08609416      -0.32592756      -0.20605036      -0.76694120
Cd      -1.98406440       8.23582786      10.27416409      -0.21837527       0.41633758      -1.54551946
Cd       2.20519627       8.25980141      10.13724490      -0.50290582       0.43784441       0.21223559
Cd       6.21571838       8.55814812      10.16681815       0.61898021      -1.12976228       0.13337743
S        0.09425987       2.31819347       2.59104381       0.84795207       1.27694856      -0.17706073
S        4.11890634       2.38569786       2.47197448       0.35117734       0.20474840       0.54219512
S        8.47526152       2.31446737       2.61247109      -1.08389538       0.48046553       0.01416098
S       -2.14357338       6.13289332       2.55606973      -0.23152943      -1.44561371       0.95003439
S        2.03909861       6.07383728       2.33136531      -0.20429826      -1.34558983       2.09593651
S        6.23379101       6.01484009       2.41647750      -0.53435274      -0.08732467       0.75284882
S       -4.00915277       9.63522356       2.55288015      -0.16777690      -2.13716154      -0.74147096
S        0.09898002       9.49434003       2.58563410       0.51939996       0.67851152       0.00672767
S        4.15688021       9.58817470       2.52233610      -0.23751412      -0.23116497       0.48896432
S        0.12340223       2.37757719       9.26739945      -1.17306347       0.49042351      -0.52888705
S        4.10865548       2.43733649       9.32324259      -0.02871034      -0.72275601       0.42543061
S        8.19050460       2.41902896       9.07707699       0.33608472      -0.39389035       1.71470676
S       -2.07877673       5.95119278       9.23193722       0.42978898      -0.05542856       0.10375769
S        2.06151059       5.95340821       9.24061572      -0.84772826       0.13358057      -0.37992181
S        6.21580318       5.88995632       9.18612302      -0.45331765       0.59614042       0.27258987
S       -4.24273288       9.59207173       9.04837894       0.79501285      -0.01020793       1.90032138
S        0.00857270       9.54781519       9.25168660       0.11086136      -0.81949095       0.00629534
S        4.20419704       9.48807693       9.27983867      -0.83578830       0.72532377      -0.48387594