72
Lattice="12.39778545 0.0 0.0 -6.19889272 10.73679715 0.0 0.0 0.0 13.44794642" Properties=species:S:1:pos:R:3:forces:R:3 ref_energy_eV=-269.1817031 ref_gap_eV=2.2049 energy=-242.32289241 stress="-0.002300138587816797 -0.0011889662633129843 -0.0009032345068656742 -0.0011889662633129843 0.0001287628325877017 0.0001985217521406489 -0.0009032345068656742 0.0001985217521406489 -0.0013265486666125246" free_energy=-242.32289241 pbc="T T T"
Cd      -0.12492721       2.31030697      13.43118880       0.38787070       0.24319978       0.31972128
Cd       3.90884763       2.53876024       0.12592106       0.26308526      -0.19451507      -0.98350306
Cd       8.09466568       2.21382246       0.19041163       0.25322695       0.03167635      -1.48793784
Cd      -1.96589508       5.91364416      13.30869011      -0.03585690      -0.24108091      -0.12502419
Cd       2.09078789       6.05601667      13.42210377      -0.23998476       0.01596835       0.12058835
Cd       6.31700730       5.85066115      13.41641368       0.01512444      -0.07236355       0.08094398
Cd      -4.15382656       9.60940317       0.24189749       0.21173802       0.18172499      -0.07464477
Cd      -0.14907134       9.44705979      13.34952372      -0.04726707      -0.31572024      -0.43703151
Cd       4.19125381       9.45159920      13.36879356      -0.79570987      -0.02549070       0.16706846
Cd       0.05298070       2.42577381       6.93449731      -0.27393705       0.00268484      -0.24323586
Cd       3.95581620       2.14806999       6.83701154       0.94053676       0.53406103       0.35283221
Cd       8.26198390       2.57263173       6.76738385      -0.32437145      -0.45392404       0.19033269
Cd      -2.07415043       5.97929388       6.64954232       0.64894166       0.54575601       0.36523200
Cd       2.09906075       6.06472969       6.63620761       0.16530581      -0.10968889       0.31189956
Cd       6.06225010       5.84000391       6.65872283       1.11093852       0.32206086       0.62378116
Cd      -4.13939083       9.45064696       6.63437963       0.42806684       0.60195536      -0.07828992
Cd       0.31853488       9.78875160       6.56905300      -0.90377500      -0.23249540       0.71642946
Cd       4.31814459       9.66570414       6.61426701       0.10308739       0.20126155       0.53843418
Cd       2.07474131       1.23144396       3.41296333      -0.53834750      -0.03507246      -0.05344307
Cd       6.10736149       1.13883060       3.24666683      -0.42089493      -0.66539014       0.51011305
Cd      10.13069107       1.11487530       3.46934667       0.81977764      -0.21997759      -0.27144411
Cd       0.20649733       4.74854728       3.22289678      -0.52570496      -0.03343657       0.45504823
Cd       4.26208936       4.72628464       3.34280540      -0.13579861      -0.19487456       0.46669332
Cd       8.31215328       4.73374778       3.36909237       0.39672933      -0.10700125      -0.82041521
Cd      -2.02516443       8.23452119       3.40355179       0.11279863      -0.09554167       0.41256299
Cd       2.00870371       8.38179708       3.42593172       0.08052563       0.32304975      -0.48482470
Cd       6.14389305       8.31906241       3.58398194       0.47525803      -0.09303444      -0.46336671
Cd       1.92942811       1.01310260      10.18575151       0.10262104       0.39854083      -0.91305204
Cd       6.18424679       1.18328942      10.14485617      -0.05697055       0.32351581       0.11619369
Cd      10.23426347       1.24430492      10.07060092      -0.00441588      -0.79364923       0.02910655
Cd      -0.08968006       4.85639454       9.99853122       0.28781643       0.12583717       0.11343201
Cd       4.21042078       4.79578790      10.09524414       0.21302056      -0.04938093      -0.37557627
Cd       8.44501743       4.82578393      10.04835331      -0.43537006       0.25105583      -0.31434604
Cd      -2.00587502       8.71497987       9.89013337      -0.91469409      -0.59789022       0.61034907
Cd       2.11894277       8.30310549       9.88807369       0.05181647       0.35163538       0.03802643
Cd       6.21431415       8.39728201      10.35147983      -0.24355423      -0.24835344      -1.02463676
S       -0.03899575       2.36733622       2.55586237      -0.25234882      -0.41362195      -0.09376438
S        4.09531918       2.29159198       2.50858383      -0.15925448       0.79177582       0.51147656
S        8.11210162       2.23168795       2.58466020       0.91808928       0.97397470       0.25495525
S       -1.96556015       5.89457937       2.39023759      -0.14058122      -0.08048016       0.58918933
S        2.21552821       6.01727788       2.59019349       0.03384040      -0.00498962      -0.40329278
S        6.28770433       5.93673128       2.56641766      -0.03794976       0.17879805      -0.28850317
S       -4.05956297       9.54038146       2.78715898      -0.54985682      -0.19778953      -0.40208661
S       -0.10036769       9.52193145       2.39411491       0.56257328      -0.39131994       0.57194796
S        4.23568177       9.43352080       2.49925687      -0.71911434       0.51819817       0.15575376
S       -0.12818734       2.39915719       9.40818708       0.73267026       0.20974175      -0.29425794
S        4.03606118       2.32226819       9.37612731       0.02403474       0.04593731      -0.23909591
S        8.26306065       2.43491362       9.32422873      -0.64338519       0.11998373      -0.55947904
S       -2.05509113       6.22897198       9.28113075       0.16533050      -0.38487542      -0.54801455
S        2.11446066       5.95463844       9.24031072      -0.15343049      -0.45072657      -0.44869889
S        6.31383328       6.01147249       9.18598182      -0.27736909      -0.06412234       0.50824829
S       -4.27598349       9.51937352       9.10990652       0.20366346       0.07510220       0.67062121
S        0.06714523       9.61988712       9.19629734       0.75245667       0.32288092      -0.52935057
S        4.16360848       9.56820340       9.15924663       0.28993032       0.03325380       0.39449654
S        1.97614917       1.19201457       5.90542213      -0.51288445      -0.48703493      -0.01731970
S        6.19028110       1.29710302       5.78346539      -0.09824367       0.79224944       0.20740606
S       10.27960366       1.31475291       5.95990917       0.41970943       0.04122236      -0.06900123
S        0.09578988       4.73884776       5.92615389      -0.35244835       0.38644857      -0.42466965
S        4.17169481       4.64904745       6.00594741      -1.19627371      -0.56588042      -0.91048936
S        8.32271309       4.83952907       5.77922203      -0.35256090       0.18633455       0.71609771
S       -1.92329232       8.57463844       6.06987128       0.32549802      -0.92584175      -0.78714800
S        2.24154453       8.53943474       5.91236611       0.07334355      -1.04959015      -0.31872491
S        6.26273581       8.24919517       6.04820812      -0.45101376      -0.10851954      -0.47884907
S        2.01259711       1.24420260      12.55331587      -0.04641305      -0.50228605       1.33547352
S        5.94838592       1.12243422      12.67555972       0.41743363       0.44942654       0.03003795
S       10.38573490       1.06248671      12.55394469      -1.09981332       0.18776141       0.41905358
S        0.13042024       4.66241336      12.54859577      -0.26840327       0.40210628       0.17239919
S        4.11249508       4.84221069      12.60973215       0.41407030      -0.08496719       0.18670928
S        8.33532555       4.63806800      12.49521267      -0.09010578      -0.32730058       1.02603237
S       -2.31357535       8.26116605      12.54224296       0.50558905       0.55011969      -0.27554738
S        2.00319116       8.33416285      12.39289868       0.09309895       0.37171330       0.84091742
S        6.25666157       8.30970743      12.77497864       0.29848543      -0.27278500       0.10946052
