72
Lattice="12.39778545 0.0 0.0 -6.19889272 10.73679715 0.0 0.0 0.0 13.44794642" Properties=species:S:1:pos:R:3:forces:R:3 ref_energy_eV=-265.38098665 ref_gap_eV=2.2258 energy=-238.76270103 stress="-0.00610993803237002 0.005860697658483771 -0.0003440169534647101 0.005860697658483771 -0.014668133085268398 0.00047546447758027355 -0.0003440169534647101 0.00047546447758027355 -0.009689880296872698" free_energy=-238.76270103 pbc="T T T"
Cd       0.18521492       2.52852120       0.08523631      -0.71191555      -2.44766441       0.72072809
Cd       3.94533164       2.36552020      13.36728685       1.94848722       1.08957150       1.28507062
Cd       8.29851590       2.38080671      13.40672134      -0.83264837      -0.19919422      -0.06949093
Cd      -2.10034404       5.99586881       0.16693581      -0.03865616      -0.24500214      -0.63824652
Cd       2.01386931       5.96597574       0.05125510       0.15034708      -0.13478650      -0.59482033
Cd       6.17670918       6.03673789       0.01121424       0.08650755      -0.09610998      -0.12169624
Cd      -3.94314932       9.64300108       0.00240490      -1.29132098       0.22899850       0.21943445
Cd      -0.00048828       9.54325172       0.00214737       0.27797224       0.33889050      -0.16153183
Cd       3.95130707       9.38877090       0.03467862       1.52018577       1.18648498      -0.06241083
Cd      -0.00801690       2.38499911       6.73416796       0.25597336       0.34717506       0.14144463
Cd       4.09561208       2.44084817       6.70476457      -1.00581396      -1.15502614       1.05611506
Cd       8.22957665       2.43869158       6.93345752      -0.05028331      -0.14918507      -1.84804339
Cd      -2.04124454       5.97256395       6.80667230      -0.52776900      -0.07619868      -0.13216772
Cd       2.03720361       5.91722435       6.65020342       0.23836656      -0.25782593      -0.18502477
Cd       6.21829278       5.84965661       6.65344236      -2.67215352       1.79668311       1.12512142
Cd      -4.22132500       9.73449405       6.61392450       0.29638140      -4.36090067       1.68189426
Cd       0.12654556       9.41380428       6.72385110      -1.49591652       0.93751816       0.29814500
Cd       4.10599486       9.57539512       6.88229656       0.32666030      -0.50037617      -1.54211341
Cd       2.06740920       1.18973268       3.36593290       0.27016905       0.29822409       0.47319773
Cd       6.19657800       1.19300751       3.36509147       0.44105875       0.69279278       0.43459231
Cd      10.42591445       1.08496516       3.30968633      -0.01651253       0.36188246       0.70730656
Cd      -0.07889448       4.79901237       3.13524065       2.38036089      -1.40131548       1.33130250
Cd       4.13813655       4.77963127       3.36830499      -0.20960526       0.36143077      -0.36380240
Cd       8.27807592       4.67966450       3.51113173       0.17908499       0.00493358      -0.69072001
Cd      -2.20877464       8.37490137       3.56530140       0.74987883       0.03340397      -2.08322568
Cd       2.13083181       8.42300706       3.56385400      -0.06172515       0.03018639      -1.84300525
Cd       6.09182180       8.26092168       3.27329888       1.42157882       0.05096792       0.77692821
Cd       2.06618690       1.19372054      10.08611702       0.15003705       0.00104099      -0.13881685
Cd       6.23630751       1.38261366      10.05695824      -0.14092207      -0.85672421       0.03020942
Cd      10.32060289       1.21059653      10.11171761       0.31455750      -0.19235622       0.04868418
Cd       0.06012027       4.74943628      10.02967639      -0.11341108       0.26837925       0.06624683
Cd       4.12738246       4.76940233      10.08884816      -0.17772092       0.64634855       0.15760137
Cd       8.29207265       4.73252089      10.09508209      -0.53501703       0.26782488       0.44039532
Cd      -1.94286154       8.23388224      10.04397627       0.00580234       0.63137209       0.36613945
Cd       2.11540091       8.37133794      10.07456819      -0.02344245       0.60699175      -0.70960741
Cd       6.27644546       8.28270654      10.06488433      -0.06375415       0.64374256      -0.01072476
S        0.04805264       2.38907619       2.56180246       0.03287756      -0.11014255       0.15906204
S        4.15900338       2.44021631       2.70480900      -0.23892197      -0.46614008      -1.03382121
S        8.48374477       2.36831273       2.44589219      -0.83137230       0.15637247       0.71958542
S       -1.88758546       5.96165483       2.64521375      -3.14894333       1.59530374      -0.58955148
S        2.04320798       5.97931224       2.50444562       0.34685301       0.42487858       0.61604966
S        6.20999916       5.94919402       2.57831775       0.40623419      -0.53017348      -0.33522126
S       -4.02632253       9.62657582       2.55279422      -0.75015794      -0.53278797      -0.41722201
S        0.09638944       9.67598699       2.53564593      -0.07031547      -1.14775737      -0.03502587
S        4.30529620       9.52575762       2.47173443      -1.52404322       0.19661311      -0.08918305
S        0.00041465       2.38612615       9.25838059       0.12214064      -0.08553474       0.08563238
S        4.17524070       2.45037536       9.31324767      -0.74599988      -0.15931167      -0.62051228
S        8.30703857       2.41168349       9.27492546       0.15049402      -0.02874523       0.76196318
S       -2.16697699       5.94962832       9.27951700       0.88173493      -0.41113130       0.04394698
S        2.01350915       6.13829618       9.13500469       0.28220598      -1.16422695       0.34649790
S        6.22685717       5.98398790       9.27744184      -0.25495924      -0.59319724      -0.49259397
S       -3.99355840       9.52011683       9.44457010      -0.47128434       0.15462557      -0.88805776
S        0.02905031       9.56302933       9.25633408       0.06954651       0.33586040      -0.04053502
S        4.15142270       9.59338355       9.18940688       0.28675867      -0.24370608       1.78275043
S        1.98793227       1.05235010       6.00841713       0.51189401       4.46016564      -1.49277541
S        6.02364315       1.28385112       6.00582692       1.84324129      -1.17815898      -0.53070409
S       10.45335534       1.12004808       6.01834252      -1.30492620       0.59620225      -0.99549234
S       -0.09373302       4.78635347       5.96942225       0.51537521      -0.41195369      -0.79141732
S        4.13974008       4.57293569       5.82166428      -0.45834210       2.30421874       0.19339136
S        8.09302341       4.93088998       5.94328469       3.17036055      -1.93260655      -0.50299849
S       -2.13464902       8.23672824       5.82486947       0.27596088       0.76177668       2.45371000
S        2.05532719       8.35358056       5.89423102       1.04341826      -0.50724820       0.79195827
S        6.19992236       8.41053004       5.83355953      -0.44104475      -0.61380237       0.22250952
S        2.10393302       1.29953050      12.62517873      -1.73380982      -1.55656693      -0.64859171
S        6.00438182       1.25941181      12.51049182       0.95532374      -0.40635897       0.76473559
S       10.25098040       1.25481389      12.57313169       1.00918577      -0.80129959       0.42737845
S        0.03718146       4.55655627      12.61541606      -0.50938597       3.34755580      -1.01177339
S        4.13153299       4.74816129      12.66259697      -0.16740183       0.46714100      -0.13892092
S        8.22362113       4.71245339      12.62774178       0.21171124       0.83363157       0.12438439
S       -2.09684811       8.40655785      12.64872071       1.01576987      -1.10910744      -0.38518852
S        2.17528091       8.32238340      12.46237682      -1.81501845      -0.67163400       0.73646550
S        6.17348489       8.39186358      12.55971063       0.29001880       0.27506780       0.64445595
