72
Lattice="12.39778545 0.0 0.0 -6.19889272 10.73679715 0.0 0.0 0.0 13.44794642" Properties=species:S:1:pos:R:3:forces:R:3 ref_energy_eV=-266.77053898 ref_gap_eV=2.2201 energy=-240.09908574 stress="-0.012732136036172025 -0.0027349798412437303 -0.0021789670780845787 -0.0027349798412437303 -0.007053336088724932 -0.001667829735691522 -0.0021789670780845787 -0.001667829735691522 -0.004670747620985383" free_energy=-240.09908574 pbc="T T T"
Cd      -0.01594039       2.27215805       0.11589467       0.18305270       0.28431400      -0.35937615
Cd       4.29802422       2.28638399      13.33123183      -0.84314640       0.21130036       0.49698700
Cd       8.21394806       2.45128251       0.02195754       0.86208444       0.10848045       0.28858557
Cd      -2.02628103       6.01526312       0.03557399      -0.08440739      -0.65258682      -0.52172110
Cd       1.99611208       5.82518369      13.31940530       1.12147900       0.86318170       0.46251277
Cd       6.20012903       5.97084563       0.00692045       0.43047485       0.21561404       0.24592799
Cd      -4.11348547       9.35371225      13.31178018      -0.25657134       1.26586348       0.45696273
Cd      -0.06518464       9.53876933       0.02196937      -0.14240909      -0.53450801      -0.04008790
Cd       3.97774832       9.39684991      13.39791562       1.76802321       1.35628535       0.56976987
Cd       0.01662531       2.24656400       6.73098349       0.20486353       1.00026626      -0.02404106
Cd       4.16234050       2.29736838       6.59871231      -0.23198221       0.41178966       0.45462928
Cd       8.27523026       2.39760099       6.73305891       0.21289578      -0.04113056      -0.12024854
Cd      -2.27501954       5.98100865       6.76437595       0.93658589      -0.74576825       0.23461103
Cd       2.07095156       5.94857891       6.72122889      -0.18567103       0.15549396      -0.13803994
Cd       6.19024527       5.94208497       6.70866447       0.13572394       0.09475667      -0.33229056
Cd      -4.13063675       9.53832149       6.72537435       0.32485268      -0.23554254      -0.03065936
Cd       0.02241099       9.52911641       6.77846536       0.15909769       0.11658887      -0.91413082
Cd       4.13085019       9.46268323       6.78489590       0.26779666       0.79444625      -0.43802180
Cd       2.13373549       0.98259624       3.35268318      -0.69227895       1.45957864       0.57912165
Cd       5.96985387       1.23097369       3.30710177       1.80057765      -0.64413794       0.60930387
Cd      10.30457187       1.19319938       3.25837220      -0.42089842       0.21584909       0.83788997
Cd       0.00516740       4.72481498       3.30847776       0.44112309       0.18259352       0.19372285
Cd       4.16485235       4.71424085       3.42101542       0.19587619       0.29016768      -0.51671716
Cd       8.28764230       4.85271654       3.31284095      -0.18447367      -0.42700335      -0.33071650
Cd      -2.06817203       8.35431668       3.35153997       0.25998328      -0.19730416       0.16851822
Cd       2.15101045       8.44854796       3.31616488      -0.97748739      -1.29422696       0.53608813
Cd       6.16506221       8.29322055       3.23831916      -0.15844120       2.99445077       1.02437907
Cd       2.08894217       1.19138035      10.12658445       0.10187716       0.71198243      -0.00980184
Cd       6.03459523       1.20347460       9.99218742       2.40260443      -1.41500079       1.08830914
Cd      10.26081897       1.25482022      10.13544167       0.45070569      -0.45804459       0.39466713
Cd      -0.01225019       4.77832707      10.08463439      -0.00629844      -0.53017294       0.10148518
Cd       4.13247907       4.81746667      10.05039228      -0.91701651      -1.00916622       0.89666723
Cd       8.26397815       4.77187791      10.08857531      -0.70909955      -0.55450406       0.12165990
Cd      -2.24636497       8.30565161       9.94321349       1.54153827      -0.44629662       0.49671562
Cd       2.26304750       8.31676065       9.98742160      -1.88396492       0.14058294       1.03278057
Cd       6.17777440       8.21367333      10.29246729      -0.09966256       0.14532080      -3.38387154
S       -0.08957071       2.30350027       2.56744307       1.24152589       0.29314282       0.19501384
S        4.06045122       2.34614511       2.64054543      -0.72000095       0.79342282      -1.16975432
S        8.26533608       2.38604455       2.53226485      -0.79697706       0.38260424       0.28400881
S       -2.06394334       5.92927308       2.44085217       0.31171490       0.38698083       0.80383627
S        2.23533454       5.85958482       2.40406275      -0.88087740       0.64767971       0.42712089
S        6.23186408       6.17602851       2.57013440      -0.08588782      -3.11101049      -0.98236850
S       -4.06072235       9.60462712       2.40805774      -0.44520381      -1.67413307      -0.25981701
S        0.04782521       9.55447522       2.51915485      -0.49432091      -0.09255674       0.33036083
S        3.97416456       9.64015121       2.49027835       1.82509358      -0.31944631      -0.53655269
S       -0.02834487       2.24860195       9.20916460       0.31629655       0.71206082       0.55483277
S        4.27819284       2.34426069       9.23259523      -2.69927518       1.62010173      -0.74113846
S        8.28507416       2.31925706       9.25738100      -0.79099844       0.54045788       0.01802813
S       -2.14077322       5.88292157       9.29473926       0.47612407       0.32454628      -0.28110852
S        2.05542104       6.02026625       9.34984169      -0.20841447      -0.94426112      -0.56123691
S        6.04477418       5.84787720       9.20489125       1.70708063       1.04596581      -0.08004400
S       -4.01925238       9.65271423       9.28734007      -1.71540764      -0.39761648      -0.65151183
S       -0.03314833       9.54755170       9.13562034       0.11575974      -0.44319636       1.80772329
S        4.03307871       9.54429223       9.22917878       2.04831685       0.87165806       0.22260066
S        2.06168229       1.18840003       5.89654958       0.30181871      -0.40365969      -0.27488152
S        6.20614469       1.19311907       5.95157938       0.44395339      -0.30689453      -0.71071471
S       10.40105088       1.30412585       5.88343474      -0.97519360      -1.01761534      -0.39921235
S       -0.01183027       4.77921522       5.88317586      -0.08207747      -0.12856120       0.18111307
S        4.15579918       4.73843676       5.84920205      -0.14057899       0.03384467       0.73852251
S        8.28761992       4.77860355       5.78134868      -0.77725620      -0.31998965       0.43945530
S       -1.91970242       8.18835575       5.95462803      -0.74237160       1.30814360      -0.73376816
S        2.11630031       8.43112504       5.89441471      -0.35889571      -0.69399057      -0.33439141
S        6.18473626       8.36427152       5.88999115       0.31273425      -0.10214696      -0.29452401
S        2.06156024       1.18984510      12.61735028       0.39469718      -0.20840271       0.32368544
S        6.33930415       1.13391583      12.77995989      -0.55430244      -0.21615283      -1.34951843
S       10.32905372       1.20798899      12.69765187      -0.25061687      -0.39500714      -0.34552588
S        0.02193850       4.75247426      12.67320565      -1.03485028      -0.75632429      -0.67422069
S        4.23651415       4.74418170      12.75274595      -0.62837176      -0.24495368      -0.88505743
S        8.26589348       4.77621858      12.61944789       0.07537477       0.32493899      -0.04263011
S       -2.15506631       8.25973634      12.58311208       1.27481332       0.33374123      -0.74286719
S        2.06652369       8.42449872      12.67971379      -1.73541260      -1.60342381      -1.25686970
S        6.22111340       8.36667967      12.50755210      -0.73541964      -0.07345960       2.84984155
