72
Lattice="12.39778545 0.0 0.0 -6.19889272 10.73679715 0.0 0.0 0.0 13.44794642" Properties=species:S:1:pos:R:3:forces:R:3 ref_energy_eV=-269.60475637 ref_gap_eV=2.2116 energy=-242.73572552 stress="-0.00031676709259843426 0.0012901579533521551 -0.0010007708945343262 0.0012901579533521551 -6.0897418382801064e-05 0.00026215818814674343 -0.0010007708945343262 0.00026215818814674343 -0.000785576617246817" free_energy=-242.73572552 pbc="T T T"
Cd      -0.05210076       2.33036073       0.04004193       0.52554454       0.09905194       0.48806128
Cd       4.13521030       2.47105454      13.33023749       0.74014217       0.26338135       0.43785549
Cd       8.30974668       2.28781016       0.17713124      -0.24244035       0.41968025      -0.79518883
Cd      -2.12809983       6.09134664      13.20572013       0.16057617      -0.01847859       0.21134636
Cd       2.06796128       6.00690774      13.18340756       0.29616005       0.05069245      -0.06727511
Cd       6.15522116       6.11095547      13.40167768       0.18781023      -0.83135558      -0.00290599
Cd      -4.27627106       9.52113038       0.18055697       0.30726908       0.45717716       0.17277367
Cd       0.16163415       9.43080192       0.05670542      -0.75432488       0.58372628       0.27053832
Cd       4.02098455       9.62704201       0.21057507       0.23386441      -0.33351665      -0.50606139
Cd      -0.06469673       2.17854832       6.52313633       0.53724064       0.33021270       0.53368484
Cd       4.26944676       2.48453684       6.71667703       0.27199916      -0.30346222      -0.00864599
Cd       8.29547423       2.56027292       6.74098231      -0.33266043      -0.64745854      -0.30553704
Cd      -2.11433984       5.94788596       6.79457520      -0.57601270       0.00427245      -0.11985184
Cd       1.92282264       5.74012281       6.80657816       0.27867188       0.08266068      -0.35804811
Cd       6.19421275       6.10532885       6.91375614       0.04629883      -0.37452524      -0.12840218
Cd      -4.12642888       9.68956528       6.56765670       0.16307608      -0.47318044       0.13885590
Cd      -0.02938758       9.29127338       6.73824847      -0.19642311       0.40625334       0.37545034
Cd       4.12506079       9.43471151       6.68486712      -0.56032103       0.19905289       0.33536447
Cd       2.09840286       1.26785330       3.33570434      -0.02626853       0.06975986      -0.60735315
Cd       6.35530089       1.29730755       3.45251805      -0.41259987       0.09325409       0.10494160
Cd      10.47401619       1.08818223       3.33707818      -0.00068588       0.76796607       0.69793984
Cd       0.10856245       5.00396527       3.34861652      -0.39614351      -0.16688764       0.16900240
Cd       4.14438417       4.81316723       3.25014904       0.27056950      -0.18809347       0.18547780
Cd       8.37613385       4.85059624       3.33523447       0.27699060      -0.00023467      -0.61124025
Cd      -2.12026926       8.46464693       3.23149459       0.54241453      -0.54432156       0.29598394
Cd       1.89167091       8.19770235       3.38498743       0.25366727       0.27816167       0.04435798
Cd       5.99929725       8.28421108       3.43187007       0.81348341      -0.21025186       0.54586065
Cd       2.00639561       1.19804726      10.09365177       0.30194123       0.31222007       0.27089481
Cd       6.31714962       1.18091820      10.27986912      -0.07431311      -0.07098514      -0.86808925
Cd      10.34274000       1.09094975      10.16684437       0.00335774      -0.19008476      -0.29294573
Cd       0.00993565       4.63002957      10.15007290       0.19392627       0.25917138      -0.08397700
Cd       4.21841587       4.78638096       9.87425081      -0.10166367      -0.60463448       0.15595019
Cd       8.42397201       4.63534010      10.06746311      -0.23144247      -0.13174611       0.02119828
Cd      -2.28842731       8.46507050      10.13341305       0.70878848      -0.26809448      -0.29624830
Cd       2.01374223       8.27695924       9.96999078       0.22007112       0.65767021       0.00309448
Cd       6.20748588       8.43832202      10.26640490       0.14976513      -0.32062982      -1.25111075
S       -0.01263632       2.58251087       2.64431529       0.20652079      -0.70512539      -0.36328256
S        4.21349357       2.40785893       2.48560330       0.08861294      -0.05626808      -0.02290952
S        8.41784942       2.36880576       2.57594338       0.02897459       0.36549788       0.63345635
S       -1.96990489       6.07792167       2.38000747      -0.25553688      -0.07106467      -0.00598400
S        2.14033825       5.96439657       2.29036010       0.02589637       0.21779697       0.25746934
S        6.27077521       6.01656485       2.51111056      -0.13263736      -0.32355066      -0.37126360
S       -4.23088233       9.48635593       2.75440207      -0.69047542       0.72962719      -0.66833891
S       -0.00521872       9.65025862       2.64123491       0.16640683      -0.30304144      -0.67935246
S        4.11525421       9.52158390       2.62716365      -0.89639978      -0.30467986       0.13952611
S       -0.07629764       2.34728579       9.21502374       0.30009069      -0.27941512      -0.25649992
S        4.26007230       2.29299990       9.29397394      -0.53911811       0.23077522      -0.23203455
S        8.31760452       2.25547651       9.20134462       0.07624088       0.28191801       0.38334084
S       -1.98442896       5.94491455       9.31877814      -0.14095926       0.49587298      -0.03592718
S        2.11129396       5.95714065       9.32651367      -0.48572178      -0.83173251      -0.42159171
S        6.31244739       5.90892974       9.36621133       0.47246421       0.64638862       0.01653143
S       -4.19916886       9.61786441       9.12333349      -0.31508072      -0.14080088       0.20029140
S       -0.01069160       9.54093827       9.39106314      -0.50053681      -0.19777214      -0.67339444
S        4.16010809       9.43225686       9.22928165      -0.19216448       0.24556357       0.17418442
S        2.15938738       1.26276523       5.79148682       0.04957765       0.47042322       0.57019223
S        6.28614636       0.98520614       5.93825677      -0.12085702       0.71001709       0.21516636
S       10.25780091       1.10247591       6.01580475      -0.44029652      -0.15110447      -0.86436293
S       -0.22141558       4.62932567       5.89542237       0.82977999       0.28387082      -0.25506381
S        4.27360250       4.86890441       5.81639780      -0.85651234      -0.21639761       0.29220669
S        8.05522845       4.79208843       5.75085184       0.62815846       0.31606527       0.87031577
S       -2.15560729       8.27016574       5.80347970       0.11933372       0.06124009       0.25208650
S        2.04949372       8.19933735       5.89952453       0.06142584      -0.38785049       0.07531058
S        6.18736471       8.37792722       6.01125236       0.42185391       0.08944251      -0.75873631
S        2.14665640       1.27162019      12.76020620      -1.05562692      -0.82809016      -0.63827456
S        6.25195370       1.18671403      12.66515706      -0.01432806      -0.10916736       0.95284217
S       10.35085119       1.15216334      12.69624158      -0.13575403       0.11196489      -0.31604760
S        0.03716621       4.67648114      12.65307569      -0.49359120       0.61492409      -0.13811249
S        4.17590832       4.80110605      12.40164603       0.04431858       0.28476057       0.60541259
S        8.26005171       4.69048214      12.57751303      -0.13932574       0.23795367       0.38958004
S       -2.13223827       8.63451434      12.61093359       0.16740426      -0.73911866       0.40070115
S        2.13742223       8.48129155      12.48983040       0.16521583      -0.68226264       0.26486414
S        6.10254458       8.44627112      12.64118004      -0.02568214       0.27691587       0.85194672
