72
Lattice="12.39778545 0.0 0.0 -6.19889272 10.73679715 0.0 0.0 0.0 13.44794642" Properties=species:S:1:pos:R:3:forces:R:3 ref_energy_eV=-269.63617975 ref_gap_eV=2.2075 energy=-242.77462409 stress="-0.004131166779037798 0.0009523498534375818 -0.0007616203695387239 0.0009523498534375818 -0.0007547544660813965 2.775054224533595e-05 -0.0007616203695387239 2.775054224533595e-05 0.0006261370232072732" free_energy=-242.77462409 pbc="T T T"
Cd       0.04072927       2.48018736       0.03965060      -0.50132885       0.48225785       0.51957792
Cd       4.16449164       2.46788654       0.20311886       0.01996726      -0.25203470      -0.78659405
Cd       8.43595843       2.40480700       0.10379206      -0.73037043      -0.22420016       0.06979836
Cd      -1.98054058       5.96478160      13.38967875       0.34806343       0.50495822       0.29275631
Cd       2.10029259       6.02273743      13.19265383       0.00964447       0.07042026       0.56723653
Cd       6.20809257       6.03385377      13.31590090       0.14590358      -0.32632227       0.56793010
Cd      -4.39630617       9.42946540      13.33585375       1.13434400       0.81688578       0.32354421
Cd      -0.02443870       9.52800762       0.08095892      -0.23126696      -0.01555943       0.28156112
Cd       3.99746774       9.57932564      13.37015543      -0.08444475      -0.14779109       0.15842168
Cd       0.10598284       2.59744124       6.67619992      -0.45612164      -0.06053479      -0.01442932
Cd       3.98557802       2.33562842       6.80786648       0.59857125       0.55231010      -0.90474443
Cd       8.35752756       2.52563762       6.81430091      -0.39915761       0.20413734      -0.21482695
Cd      -2.11118262       6.20627686       6.83608430       0.15961630      -1.44594548       0.10791966
Cd       2.16619048       6.23231059       6.80576470       0.30223080      -0.28398543      -1.12313622
Cd       6.15587514       5.93508415       6.75549197       0.44468532       0.13979133       0.05194547
Cd      -4.01054641       9.45820534       6.89810475      -0.10503314       0.13027051       0.15300088
Cd      -0.07725593       9.66976094       6.71322521       0.14737255       0.09043356      -0.03605188
Cd       4.21291386       9.56859722       6.66738371      -0.17370611       0.44674799      -0.67666167
Cd       1.93957117       1.20675673       3.51071094      -0.15756224      -0.34085576       0.01344732
Cd       6.02934526       0.96477627       3.37858446       0.45079202       0.56761337       0.86579759
Cd      10.28185938       1.16725799       3.32233493       0.20198649      -0.17403564       0.53495615
Cd       0.07034621       4.95008340       3.40156364       0.10541860      -0.34408778       0.00316623
Cd       4.11373132       4.66999451       3.31706387       0.56390907       0.06676548       0.04258615
Cd       8.14915891       4.67066105       3.11807448       0.43288834       0.09467332       0.61835520
Cd      -2.16113770       8.32160080       3.32432402      -0.24855411       0.27367590      -0.27629814
Cd       2.13584002       8.22920465       3.29889005       0.27429262       0.01908087       0.58649561
Cd       6.10983528       8.39558453       3.40175756       0.43497688       0.03755669      -0.12836568
Cd       2.10457057       1.12019581      10.24578879      -0.15611321       0.39904172      -0.13931177
Cd       6.34833755       1.14222311      10.13684335      -0.57423748       0.05013241       0.13270016
Cd      10.40381627       1.08454213      10.23382765      -0.11467927       0.05178527      -1.17209114
Cd       0.06761529       4.65923677       9.89508719       0.13872165      -0.49877996       0.45933818
Cd       4.18723184       4.66779862       9.98976665      -0.36214720      -0.48823011       0.08796508
Cd       8.31593584       4.66200043      10.24302927       0.17098731       0.46715419      -0.05752470
Cd      -1.98236355       8.29358259      10.09599333      -0.01650029      -0.16524453       0.18615927
Cd       1.96482590       8.23570825       9.82413233       0.37242415       0.46679226       0.64099500
Cd       6.08280414       8.35653630       9.98465939       0.39706822      -0.34629659       0.13547101
S       -0.06120948       2.41393907       2.64912791       0.03397143       0.53691470      -0.40697779
S        4.05716004       2.21592419       2.65927116       0.00378542       0.57198797      -0.08773378
S        8.15431044       2.17621361       2.62464673      -0.20042148       0.65924123      -0.35425750
S       -2.03331244       5.96501147       2.52071159      -0.36732377      -0.26485175      -0.22467203
S        2.21504805       5.94821085       2.44057662      -0.60666531      -0.30144527      -0.61060445
S        6.18748887       6.04834147       2.48996582      -0.26783217      -0.41366347      -0.30224910
S       -4.24490770       9.63131043       2.42709855       0.32353356      -0.39158202       0.37021451
S        0.09750691       9.41388706       2.71440209      -0.91499938      -0.31895636      -0.96440117
S        4.08618047       9.50407272       2.45316928       0.14376190       0.36232265       0.04525947
S        0.03083491       2.26189378       9.23086784       0.05285136      -0.06925250      -0.00170421
S        4.11603681       2.19118543       9.18772172       0.39275791       0.49094828       1.35715686
S        8.31998831       2.37869167       9.35388871       0.39975417      -0.29010129      -0.18714378
S       -1.93671410       5.87253329       9.32718378      -1.03953840       0.43944350      -0.14627651
S        2.06668375       5.90164751       9.17731274       0.64197825      -0.46996947       0.70166257
S        6.23232522       5.86724735       9.38758631       0.37222571       0.39441815      -0.56180752
S       -4.09812610       9.49684943       9.47064526      -0.19030196      -0.36983116      -0.59093142
S       -0.00643680       9.54141584       9.21082448      -0.21708969       0.08910735       0.07729975
S        4.09666869       9.47223522       9.10831576      -0.35488113       0.36639662       0.76757755
S        2.03030920       1.10476081       6.04359924      -0.28059366      -0.06210217      -0.50583362
S        6.19063109       1.29373016       6.04614978       0.03961974       0.30653015      -0.65140188
S       10.33054951       1.34744431       5.92332740       0.55626306      -0.46890786      -0.21470127
S        0.14234170       5.02155987       5.92368484      -0.49737175      -0.35677984       0.10485631
S        4.18362297       4.78872437       5.81211180      -0.58045773      -0.13063656       0.59816444
S        8.31638768       4.91550147       5.86743948      -0.06220250      -0.27577417      -0.15099392
S       -1.99794131       8.34710671       5.85638554      -0.31122083       1.03375945      -0.25892024
S        1.98118496       8.53163467       5.86626722       0.76769851      -0.14942442      -0.13540107
S        6.32141899       8.41388583       5.90223564      -0.34954722      -0.34860316       0.22193456
S        1.96858931       1.31331622      12.71887972       1.16291166      -0.81329500      -0.02400992
S        6.27547155       1.14788698      12.68060216      -0.21441209       0.61450435       0.18165267
S       10.39526570       1.22821626      12.62028019       0.13452589      -0.06176622       0.71757563
S        0.04880835       4.82886851      12.47986534      -0.11974351      -0.31467983       0.08793038
S        4.17635402       4.82361402      12.55518231      -0.02549939      -0.66158797       0.00990532
S        8.36365709       4.78959964      12.77209526      -0.56408611      -0.15198876      -0.26721778
S       -2.11457050       8.39271748      12.61095995      -0.14523455       0.02903601       0.33507511
S        1.95669593       8.40667693      12.48784441       0.25413439      -0.02013063      -0.28229948
S        6.03997475       8.35277133      12.54943748      -0.51299137      -0.00786112      -0.51781594
