72
Lattice="12.39778545 0.0 0.0 -6.19889272 10.73679715 0.0 0.0 0.0 13.44794642" Properties=species:S:1:pos:R:3:forces:R:3 ref_energy_eV=-269.51298334 ref_gap_eV=2.2224 energy=-242.62889436 stress="-0.000983637508836629 -0.0009823455289305891 0.0008240086659988792 -0.0009823455289305891 2.5783062531129404e-05 -3.393157114778941e-05 0.0008240086659988792 -3.393157114778941e-05 -0.0024715626533251683" free_energy=-242.62889436 pbc="T T T"
Cd      -0.28751841       2.36365736       0.09551754       0.02563204      -0.39799334      -0.03362353
Cd       4.06659736       2.47351928      13.34089794      -0.09026884      -0.14396070       0.43592021
Cd       8.15306502       2.25662116      13.33042240       0.14026288      -0.78202638       0.33039510
Cd      -2.15568937       5.96334125       0.20259318      -0.12196751       0.04355331      -1.33375688
Cd       2.02031746       5.83490017      13.29805937      -1.03233244      -0.02696568       0.61596144
Cd       6.36272190       5.72557166       0.11426666      -0.06671430       0.03030271      -0.50753041
Cd      -4.22031886       9.57380296      13.27381448       0.71442940       0.01371856       0.55488243
Cd       0.13553563       9.56305768      13.42960786      -0.78442512      -0.10885619       0.34818414
Cd       4.16791678       9.12768861       0.00484825      -0.06617301       0.72766695       0.23379299
Cd       0.00319950       2.29283874       6.74986454       0.25142433       0.72129824      -0.23361275
Cd       4.06913692       2.52269918       6.68924927      -0.10366721      -0.33293680       0.04326635
Cd       8.36821997       2.49831237       6.67314024      -0.22310352      -0.15656459      -0.23246135
Cd      -1.80653630       6.05035065       6.86294940      -0.07018783       0.10782382       0.12773658
Cd       2.06384726       5.80473117       6.58834287       0.45304158       0.54613295       0.08348434
Cd       6.33185978       6.11424382       6.83429035       0.09570954      -0.23287969      -0.68139289
Cd      -4.03084518       9.65026366       6.90137072       0.05040821       0.12750979      -0.00541710
Cd       0.04289851       9.39584409       6.65829882       0.89640280       1.18057919       0.44418427
Cd       4.22992542       9.58291184       6.68282411      -0.26327565      -0.32856955      -0.11100421
Cd       2.05273140       1.23585034       3.38307984      -0.01817474      -0.18810103      -0.61578449
Cd       6.11614464       1.21568255       3.44842301       0.37292560       0.37906707       0.51338068
Cd      10.27265842       1.21042603       3.31478727      -0.31976623       0.35584092      -0.55382312
Cd      -0.16477847       4.93095440       3.18748000       0.61427774      -0.16097776       0.14746552
Cd       4.06770175       4.84054628       3.26709924       0.14922901      -0.29045726       0.34748481
Cd       8.31030260       4.86449567       3.45039784      -0.27888475      -0.09160032      -0.05085439
Cd      -2.12164337       8.68964478       3.47197588       0.07191732      -0.28445355      -0.14172352
Cd       2.02294889       8.35701978       3.35815139      -0.14350496      -0.07951721      -1.18860197
Cd       6.14244828       8.44767753       3.44070631       0.16877191       0.15349060      -0.48328260
Cd       2.18235446       1.16742237      10.18433464      -0.24690296       0.16064499       0.08921338
Cd       6.27493231       1.04942465      10.06785296      -0.00217374       0.68369212      -0.54819831
Cd      10.51471359       1.17745215       9.99406314      -0.57643435      -0.04982765       0.02124065
Cd      -0.05846045       4.77964126      10.14505197      -0.65574366      -0.57323572       0.26891437
Cd       3.98046629       4.73858095      10.03139867       0.49645950      -0.02554852      -0.15622035
Cd       8.31887864       4.71666565      10.05473516      -0.63248459      -0.00437909      -0.14549411
Cd      -1.94662055       8.38583498      10.17859425      -0.17114489       0.22282406       0.20856710
Cd       2.10080469       8.17358815      10.04422021      -0.51552267      -0.00859455       0.32453754
Cd       6.09657412       8.42924632      10.16529745       0.49611077      -0.53323375       0.07912399
S       -0.02758972       2.45548693       2.68827488      -0.27454388       0.12733050      -0.84043033
S        4.11336962       2.38831205       2.56610782      -0.09263976       0.43044294      -0.59294319
S        8.15640703       2.46526408       2.46053243       0.27316666       0.03172909       0.27204977
S       -2.13015830       6.22404583       2.54005552      -0.33322987       0.12469326       1.10712084
S        2.05935356       6.00494280       2.40799803      -0.46007628      -0.04068507       0.05419334
S        6.13746864       6.07068840       2.52703279       0.41087076      -0.26492471       0.52701726
S       -4.17448344       9.61216994       2.44471428      -0.30171645       0.05486557       0.08933009
S        0.00968559       9.66359275       2.54796129      -0.00855356      -0.37887379      -0.28863849
S        4.04442510       9.58842572       2.55723527       0.37406672      -0.28748391      -0.47031639
S        0.12820333       2.40579768       9.21093193      -0.11447565      -0.09387385       0.29087931
S        4.15441782       2.31907474       9.23444176       0.21078779       0.28762709       0.08577307
S        8.28536241       2.35484095       9.18152046       0.35534628      -0.15989717       0.26990717
S       -2.08694823       6.02180805       9.43229723       0.15613604      -0.00839300      -0.79533223
S        1.85586412       5.82466317       9.20050291       1.12730416       0.53726568      -0.55961656
S        6.17311519       6.00853039       9.22408443      -0.10837117      -0.28421273       1.15888645
S       -4.12778947       9.53912547       9.40878202       0.02923184      -0.18854071      -0.09725469
S        0.08660926       9.50782802       9.22157033      -0.01017626      -0.58691986      -0.14894685
S        4.04961971       9.40859565       9.26399000       0.29294970       0.76843539      -0.60999149
S        2.01813526       1.19945839       5.81134514       0.58289701       0.06995753       0.83792526
S        6.13663867       1.25106094       6.06770038       0.65104075      -0.23213460      -0.56616562
S       10.46503932       1.21224979       5.75737153      -0.96469531      -0.21240944       0.74788641
S        0.03344278       4.79054394       5.73053912      -0.32509730      -0.49257595       0.31193871
S        4.30032339       4.85764291       5.88910116      -0.27119607       0.23387591      -0.30157264
S        8.49779623       4.97438238       6.00553819      -0.54388545      -0.46000941      -0.34522405
S       -1.99407493       8.46911301       5.99316245      -1.14134176      -0.70986425      -0.43711784
S        2.03490928       8.33069658       5.69833303       0.84754106      -0.24433401       1.89801403
S        6.40834978       8.43615502       5.89610176      -0.55112127       0.07515361       0.28502926
S        1.94727032       1.21663695      12.70683547      -0.17186385       0.56207207      -0.16516271
S        6.04323648       1.10803199      12.49608168       0.06457291       0.36165609       0.58641498
S       10.17161120       0.89679699      12.47838014       0.43467710       0.20729494       0.62638326
S       -0.19792847       4.72909778      12.62938095       0.37701471      -0.13675895       0.32212624
S        4.07369032       4.89526583      12.58315552       1.11937279      -0.73418790      -0.33643750
S        8.35957202       4.53003220      12.57153703      -0.16404307       1.07623520       0.08321141
S       -2.07338567       8.33792052      12.70490421       0.18024473       0.11784668      -0.06789426
S        2.00046346       8.20896503      12.64254192       0.26729603       0.13812943      -0.61874965
S        6.31001898       8.15787355      12.70567209      -0.53163975      -0.34199762      -0.50724627
