72
Lattice="12.39778545 0.0 0.0 -6.19889272 10.73679715 0.0 0.0 0.0 13.44794642" Properties=species:S:1:pos:R:3:forces:R:3 ref_energy_eV=-269.12482395 ref_gap_eV=2.162 energy=-242.27045386 stress="-0.000806720259939022 -0.0018669197834795918 0.0004585313132538253 -0.0018669197834795918 -0.00048571336012344845 -0.00041366286425342406 0.0004585313132538253 -0.00041366286425342406 0.0019057978005417168" free_energy=-242.27045386 pbc="T T T"
Cd      -0.16324176       2.44519518       0.04929372       0.72326442       0.29121258      -0.37224735
Cd       4.03403427       2.46570751       0.13374601      -0.31679896       0.03184853      -0.03573910
Cd       8.27500827       2.52977215      13.26810986      -0.12083884      -0.44943619       0.13198481
Cd      -2.25394913       5.78130680       0.30111848       0.38361995       0.12069319       0.03788653
Cd       1.89623496       6.19101311       0.05053093      -0.35306973      -0.17671961       0.28058459
Cd       6.07158774       5.92809675       0.07612089      -0.31037842      -0.05024545       0.06382376
Cd      -4.17346037       9.34613293      13.33484825       0.07622947       0.29311759       0.00405537
Cd      -0.06695498       9.67018697      13.33302686      -0.06683370      -0.30525483       0.27498589
Cd       3.96631323       9.65692305       0.02932150       0.87620442       0.22569934       0.34961226
Cd      -0.04677796       2.56440755       6.76192049       0.33428760      -0.04385906       0.27986812
Cd       3.95989067       2.48892497       6.59794578       0.67154415       0.32432153       0.41690468
Cd       8.27132458       2.21663915       6.93532262      -0.08464493      -0.15309480      -0.44062912
Cd      -2.03987632       5.90792242       6.25107792      -0.55559878       0.44781076       0.60527010
Cd       2.11226024       6.21175456       6.71901347       0.14378647      -0.03121968      -0.19522235
Cd       6.30089582       5.98989239       6.87390625      -0.51027645      -0.61314854      -0.31773876
Cd      -4.22300124       9.69993155       6.71705693       0.11856755      -0.24757494       0.38239337
Cd       0.10528764       9.72668346       6.69107415      -0.85997979      -0.54236643       0.72230895
Cd       4.22132160       9.54619694       6.49567845       0.72848712       0.30967261       0.44276307
Cd       1.95999113       1.08589937       3.28379419      -0.08075296      -0.00446047       0.14829542
Cd       6.29624590       1.23909178       3.25650871       0.16964975       0.03844335       0.48805286
Cd      10.36254540       1.29883722       3.29751164      -0.36637726      -0.15190622       0.11668566
Cd       0.31587301       4.79335805       3.29402781      -0.31140276       0.77046625       0.38534067
Cd       4.39628578       4.67868874       3.30144893      -0.80456714       0.15250664       0.51065747
Cd       8.18189433       4.72215806       3.50084875       0.37782922       0.04711076       0.25675590
Cd      -2.03870095       8.38088327       3.58914152       0.11608371       0.36499953      -0.88914370
Cd       1.99574554       8.54692967       3.38033915       0.02088439      -0.13857721      -0.06586516
Cd       6.28191276       8.47794703       3.39096115      -0.17044950      -0.26470673      -0.04678816
Cd       2.31006182       1.13213481      10.22795224      -0.38344280       0.27242754      -0.67601409
Cd       5.99775211       0.97047751      10.13572421       0.13273801      -0.05428554      -0.39633510
Cd      10.43229875       0.90328427       9.93093135      -0.63391166      -0.02326333       0.26225468
Cd       0.07487866       4.65917536       9.89312850      -0.56145519       0.29291140       0.38586943
Cd       4.27547134       4.83544061      10.25110719      -0.90768449      -0.11635765      -0.28671776
Cd       8.50686806       4.48281359      10.09269710      -0.15699150       0.67925286      -0.30710783
Cd      -2.28686116       8.04413405      10.23470661       0.29065118      -0.14730700      -0.75491502
Cd       2.06183206       8.39908268       9.94990775       0.71805765      -0.40207618       0.13010742
Cd       6.30728415       8.17233666      10.24275252      -0.05354722       0.13584809      -0.63512904
S       -0.01160203       2.52742090       2.56273117       0.29641431      -0.73420884      -0.41814817
S        4.10738403       2.25526671       2.72899284      -0.12648287       0.66394164      -0.76734181
S        8.28546977       2.46179169       2.39909737       0.15418252      -0.03098430      -0.00516239
S       -2.00838272       5.99521687       2.85057815      -0.07271171      -0.56344786      -0.46827705
S        2.25549440       6.18083527       2.68977661       0.11665138      -0.59009280      -0.85203382
S        6.27650212       6.01682468       2.53905660       0.22119828       0.29649691       0.19325779
S       -4.04595833       9.48096263       2.42273281      -0.12495026       0.12590651       0.23196223
S       -0.01244043       9.64112461       2.53401739      -0.48398323      -0.43354479      -0.57690415
S        4.11052904       9.58567914       2.61171223       0.56697850       0.34433196      -0.38846337
S       -0.07783082       2.26546248       9.33694645       1.17255599       0.09521505      -0.59505322
S        4.18992724       2.50950269       9.23474596      -0.26931175      -0.43294897      -0.16280254
S        8.20346412       2.13659450       9.40033227       0.12748794      -0.44286741       0.11191760
S       -2.03768253       5.77850922       8.93424595      -0.26093827       0.27708925       0.68340141
S        2.02387426       5.94450054       9.16318822       0.83558096       0.10601135       0.65953270
S        6.25290852       5.82886437       9.29901006       0.85495900       0.16895138       0.48788160
S       -4.16678770       9.54301627       9.25567984       0.23042670      -0.25396902       0.31355427
S       -0.08149777       9.27698281       9.33387252      -0.83226980       0.85359173      -0.51839973
S        4.29729585       9.32061833       9.10191306      -0.35548715      -0.08206236       0.01384236
S        2.01763110       1.24458612       5.84679029      -0.67747967       0.18604238      -0.21461261
S        6.11536004       1.24459020       5.86114476       0.21544090       0.69504499      -0.10331942
S       10.43138845       1.28597325       5.82912803      -0.46901411      -0.25946786       0.19269795
S        0.13969490       4.93112984       5.85490465       0.14533672      -0.53601114      -0.21373517
S        4.09678696       4.90871184       5.87654508       0.46916562      -0.09701135      -0.10106979
S        8.19974225       4.58010518       6.08359437       0.30068624       0.30099277      -0.76899202
S       -2.15876346       8.49313370       5.97044819       0.63847760      -0.34909981       0.68009821
S        2.09608398       8.59503449       5.85764964      -0.18678405      -0.64996388       0.11451490
S        6.34077602       8.22314340       5.91838165      -0.46283790       0.74347454      -0.47550723
S        2.01985564       1.09301089      12.64203116      -0.08641976       0.33307079       0.82136160
S        6.08026036       1.33579210      12.61269339       0.13444023      -0.05976841       0.25151208
S       10.33204028       1.26578485      12.50318663      -0.40441949      -0.36661677       0.09084564
S       -0.14898611       4.85548943      12.54173033       0.25038284      -0.10242922       0.39121920
S        3.93237143       4.95178690      12.70549485       0.07784178      -0.81218314       0.23126519
S        8.08168229       4.89486524      12.59441763       0.69517744      -0.22799834      -0.30897993
S       -2.07129206       8.11724111      12.71117243       0.13490774       0.46151259       0.03867733
S        2.08422141       8.51693438      12.53171578      -0.84163308      -0.33820352      -0.14244656
S        6.08626381       8.23173896      12.67020676      -0.25645257       0.82872324       0.31683843
