72
Lattice="12.39778545 0.0 0.0 -6.19889272 10.73679715 0.0 0.0 0.0 13.44794642" Properties=species:S:1:pos:R:3:forces:R:3 ref_energy_eV=-266.86884992 ref_gap_eV=2.1807 energy=-240.19558823 stress="-0.0035818128198216686 0.0010457198777269788 0.00182693912893227 0.0010457198777269788 -0.010794580831771428 0.0016127361406071518 0.00182693912893227 0.0016127361406071518 -0.004952743690666142" free_energy=-240.19558823 pbc="T T T"
Cd      -0.06869470       2.35396966      13.39941197       1.21009181      -0.73731924       1.14792268
Cd       4.20478865       2.38687655       0.05174313      -0.35207046      -0.00361706       0.27880664
Cd       8.31754786       2.40206428       0.15256601      -0.16181201      -0.20156975      -2.11652207
Cd      -2.09568098       5.96980652      13.44293047      -0.00237058      -0.17871696      -0.05478532
Cd       2.06029870       5.96895681       0.01038437       0.03838977      -0.29145619      -0.15544699
Cd       6.30037040       5.97302681       0.12390615      -0.51887559       0.18901923      -0.15957842
Cd      -3.99905428       9.50161829       0.07056554      -0.67866720       0.62285866       0.37665357
Cd       0.00311042       9.54649488      13.44748273      -0.72656945       0.53707913       0.41735131
Cd       3.93760876       9.61080422       0.01342724       0.69839820      -1.70347003       0.77896362
Cd      -0.00203596       2.39138020       6.73326238      -1.05967666      -0.16860011       0.37120416
Cd       4.06813617       2.32115425       6.70237904       0.31532042      -0.51157940       0.31815886
Cd       8.26403450       2.44324086       6.78206471       0.00749151      -0.63705021      -0.51311646
Cd      -2.07782824       5.97033918       6.75245193       0.48027921      -0.49843288      -0.02899702
Cd       2.04881451       5.95873925       6.73564643       0.10252401      -0.06364242      -0.11939510
Cd       6.29260821       5.98731867       6.69149965      -0.75018892      -0.42952705       0.79073216
Cd      -4.13832400       9.53170355       6.72270803      -0.49307683       0.26382787      -0.73985592
Cd      -0.00261388       9.48506086       6.76240932      -0.09203622      -0.57874560      -0.70266437
Cd       4.14091080       9.62300734       6.87286040      -0.09082777      -0.14849755      -0.99077576
Cd       2.03400132       1.17471845       3.30863201       0.85028552      -0.10569505       0.62499523
Cd       6.38832884       1.15522666       3.39652725      -1.79221502      -0.96953912       0.31153102
Cd      10.28075548       1.26068358       3.17213952      -0.13395518      -0.71166916       0.81602692
Cd      -0.09590902       4.73200585       3.32017452       1.03365415      -0.26225288      -0.14031343
Cd       4.13097026       4.74135910       3.41308194      -0.53263181       0.11497041       0.51155547
Cd       8.21297385       4.77486499       3.34837553       0.78248958      -0.22475300       0.25266182
Cd      -2.02603463       8.21970591       3.51369625       0.07067509       0.48001892      -1.46243374
Cd       2.09946678       8.36905422       3.35875439      -0.41742452      -0.38998191      -0.68486058
Cd       6.20704031       8.37335238       3.40138129       0.99246645      -0.67498870       0.46642069
Cd       2.05731096       1.14972115      10.03145421       0.15773489       0.76888418       0.72519952
Cd       6.21993332       1.10930795       9.87060104      -1.17821543      -0.21418962       0.99380017
Cd      10.36654976       1.29654234      10.21239445      -0.15060771       0.17787122      -0.16043702
Cd       0.07766965       4.71318596      10.30820636      -0.86270449      -0.28241795      -0.66886106
Cd       4.13206033       4.77203574      10.08781092       0.25976340       0.23193555       0.27057220
Cd       8.31396676       4.72901189      10.01905023      -0.06260208       0.09720640       0.04337937
Cd      -2.03641771       8.42773318      10.27719862      -0.55200189       0.10088020      -1.10213600
Cd       1.96609915       8.40145927      10.02094141       1.10057942      -0.47758491       0.31356480
Cd       6.19615418       8.22102471       9.97415305       0.29649235       3.38582739       1.07203674
S        0.01399041       2.28986937       2.66396812      -0.35764888       0.67342552      -1.06747335
S        4.21961634       2.40739317       2.73460709      -0.24506102      -0.78261070      -0.76517419
S        8.11718428       2.32549825       2.46106188       1.71973733       1.12022714       0.85771216
S       -1.99184172       5.92819048       2.50301086      -1.10151310       0.06470151      -0.10245923
S        2.09819848       5.93486383       2.49133186      -0.31851052      -0.00209836       0.46035216
S        6.17788790       5.86168139       2.70471648       0.03844285       0.93060372      -0.74410929
S       -4.09994957       9.51860133       2.61404733       0.26475836      -0.30779804      -0.02728939
S       -0.01337411       9.52138420       2.54488346      -0.06049468      -0.21934825      -0.08928285
S        4.22353095       9.40487932       2.70897773      -1.00331314       1.32060796      -1.37020007
S       -0.00622877       2.35301140       9.23409736      -0.05736059       0.56492599       0.48187695
S        4.17998961       2.44727446       9.35631163      -0.26107513      -0.63203573      -0.65051091
S        8.16825503       2.21925667       9.24952955       1.51902759       1.36195540       0.08798138
S       -2.04611371       6.12221998       9.26818441       0.12325284      -0.91060089       0.22007727
S        2.00201634       5.82291404       9.38417900       0.40115317       1.22789827      -0.78120702
S        6.18642818       6.09099157       9.41451636       0.24456358      -3.26287603      -1.46259853
S       -4.00572640       9.69447994       9.10740614      -0.16878043      -1.31833641       1.11677890
S       -0.02502418       9.47117507       9.20801830      -0.37129857       0.08490783       0.06471871
S        4.20444133       9.76046937       9.26487810      -0.35992404      -1.27915477       0.91462566
S        1.92226479       1.26356738       5.99840083       1.29460366      -1.13481982      -0.89122253
S        6.21977425       1.00164407       5.81906708      -0.15153776       1.00367747       0.90685700
S       10.32790153       1.19433641       5.88085650      -0.33653233       0.22918992      -0.37560856
S        0.06076837       4.58916221       5.76442848      -0.31356468       1.59831671       0.71944181
S        4.21609767       4.65313183       6.03091742      -0.29467469       0.90991945      -0.29289965
S        8.23198827       4.78485998       5.93198290       0.69879855      -0.45730429      -0.36604962
S       -2.21404401       8.26089774       5.83340232       0.74432060       0.30702890       1.35192738
S        2.11203789       8.40507016       5.76291518      -0.14889463      -0.52085223       1.58421525
S        6.13635526       8.25523032       5.98062143       0.08810701       1.08957940      -0.27898341
S        2.05790723       1.15798021      12.71155046       0.29835027       0.19974344      -0.34670213
S        6.15995698       1.16066581      12.53877635       0.60983123       0.10336838       0.02132516
S       10.50111241       1.03962743      12.70143437      -1.42848648       1.07027238      -0.48826292
S       -0.09245289       4.59385655      12.72838406       0.29252242       1.60372996       0.09046261
S        4.13132545       4.77125850      12.62089583       0.22592172       0.20949793       0.37289116
S        8.27420403       4.76202121      12.60877923       0.13220531      -0.51313021      -0.08391315
S       -2.09871125       8.32169593      12.64126571       0.86848022      -0.19060578       0.62568285
S        1.93192645       8.37149921      12.65702885       0.84009196      -0.58105822      -0.70683504
S        6.43266388       8.32779872      12.61205932      -1.21360396      -0.06602996      -0.06750229
