72
Lattice="12.39778545 0.0 0.0 -6.19889272 10.73679715 0.0 0.0 0.0 13.44794642" Properties=species:S:1:pos:R:3:forces:R:3 ref_energy_eV=-266.63123969 ref_gap_eV=2.17 energy=-239.95797208 stress="-0.0059191340061276725 0.00019987046736464278 0.0015674015757052295 0.00019987046736464278 -0.00867039218376791 0.00015801978802660607 0.0015674015757052295 0.00015801978802660607 -0.008077320797215319" free_energy=-239.95797208 pbc="T T T"
Cd       0.18510873       2.27870310      13.44420735      -1.81864665       0.96654167      -0.62096710
Cd       4.10491253       2.35010892      13.41118417       0.85596800       0.27892854      -0.35810400
Cd       8.27121796       2.35323934      13.44068466      -0.41681550       0.16027090       0.23217341
Cd      -2.13692848       6.02997886      13.37476700       1.35972333      -0.59032517       0.78420230
Cd       2.25243890       6.02832926       0.05862027      -1.13900640       0.09746492      -0.42989823
Cd       6.17085160       6.05715778       0.03396790       0.26719950      -0.79800155      -0.60041833
Cd      -4.14489234       9.62202342       0.07160964       0.36536985      -0.47570763      -0.47975813
Cd       0.05523226       9.46431791       0.02102748      -0.71867694       0.23522612       0.01531726
Cd       4.19419456       9.47602520      13.41326000      -0.43645837       0.96280042       0.47697553
Cd       0.04752282       2.36915288       6.69296077      -0.10405318       0.15623758       0.55229531
Cd       4.16799265       2.38659438       6.67323720      -0.62908576      -0.10628071       0.58950318
Cd       8.29739247       2.33709925       6.83416098       0.70300189       0.15630961      -1.01999209
Cd      -1.99961538       5.86497995       6.87605119      -0.43419847      -0.01650271      -1.36367573
Cd       2.08448895       6.05906614       6.70956723       0.22787463       0.06859964       0.12110186
Cd       6.15408056       6.07353966       6.73590342       0.27247048       0.02734374      -0.90650430
Cd      -4.11538599       9.54097627       6.76614489      -0.14330278       0.14312783      -0.72522237
Cd       0.01248191       9.55140224       6.64833335      -0.87081425       0.45430439       0.64440842
Cd       4.08039101       9.69201767       6.56418848       0.03294594      -3.38984708       1.57704323
Cd       1.94661801       1.38804337       3.32455115       1.03300233      -1.31902948       0.38118260
Cd       6.19120387       1.13463015       3.40039017      -0.29984062       0.31439072       0.21795010
Cd      10.31287529       1.13130045       3.32453219       0.06435549       0.93799886       0.17781953
Cd       0.00528983       4.76065989       3.36365845      -0.53366337       0.09008834      -0.33006005
Cd       4.09051108       4.73281776       3.48037829       0.17757871       0.14114226      -1.50700567
Cd       8.23031060       4.73441937       3.32566343       0.11231674       0.48220085       0.32974080
Cd      -2.05530524       8.25074245       3.44100701       0.01955547       2.29643626       0.77732418
Cd       2.10591152       8.45273317       3.41229013      -0.16048212      -0.35805107      -0.52826268
Cd       6.26967683       8.45014227       3.40430299      -0.18899124      -0.61696578      -0.63991816
Cd       2.08877982       1.29403540      10.11678237       0.42857095      -0.23654472      -0.27519242
Cd       6.18807529       1.19876941      10.08112111       0.56213175      -0.16216346       0.21278399
Cd      10.44956868       1.27023933       9.96652148      -1.18918246      -0.85613483       0.51470899
Cd      -0.01779696       4.74841028      10.07726357       0.50380634       1.67238076       0.85874986
Cd       4.12254863       4.75052006      10.15580952      -0.38196341       0.80157255       0.00870969
Cd       8.26113379       4.77406510      10.10589680      -0.04391734       0.35840050       0.43231167
Cd      -2.03468896       8.44141165      10.09470434       0.34241389      -1.09965185       0.03845472
Cd       2.09759459       8.58867777      10.13237796      -0.89486504      -0.71847777       0.22156849
Cd       6.26350478       8.30141798      10.08773736      -0.00037530       0.11813745      -0.13149956
S        0.04851154       2.30755781       2.37427259      -1.75446122       0.99096854       0.97310544
S        4.03373604       2.27724547       2.38129498       0.80959966       0.56519683       1.21373175
S        8.22638509       2.37060375       2.56695343       0.18483731      -0.17793391      -0.02550651
S       -2.15288604       6.19377794       2.55438430       0.37336276      -3.22889779      -0.92995036
S        1.98896141       6.00858665       2.48406149       0.54831807       0.11748600       0.90467449
S        6.28727852       6.09658663       2.40326018      -0.69893040      -0.57460934       1.64107576
S       -4.15590561       9.45194557       2.49004099       0.88319782       1.06173604       0.44245113
S        0.00131343       9.54059211       2.53177172      -0.16633163      -0.11799904       0.21221030
S        4.20094733       9.58191096       2.66446018      -0.34174293      -0.69152492      -1.11971446
S        0.00015770       2.52099460       9.42261767       0.87119356      -1.39758392      -1.49646645
S        4.29427153       2.48517557       9.30843949      -1.23456266      -0.44505062      -0.59523236
S        8.22975567       2.47792018       9.19320539       0.43558006      -0.70489259       1.35243922
S       -2.04290801       5.91620102       9.22885818      -0.27146502       0.47912141       1.26927422
S        2.07651395       6.11864462       9.24297583      -0.05663417      -0.39728789       0.21236359
S        6.14422197       5.91719901       9.13738256       0.36863539       0.28834034       1.19979603
S       -3.92367066       9.53716181       9.18829541      -1.73802021       0.81509924       0.55212339
S       -0.07096721       9.57525790       9.30221941       0.88055231       0.19285698      -0.71635777
S        4.09120994       9.39811202       9.17589344       1.37418722       1.22616980      -0.29854072
S        2.05245320       1.24800053       5.81492041       0.50999740      -0.43025495       0.39185223
S        6.22931956       1.31007231       6.07313523       0.01941400      -1.06991847      -1.14092395
S       10.48845303       1.01491368       5.91732746      -0.32338581       4.34207228      -1.08906032
S        0.07295632       4.74951337       5.90933360      -0.18782116       0.09942018      -0.19798026
S        4.17113499       4.69647843       5.86152063      -0.29306789       0.91925042       0.66649898
S        8.20453666       4.68616767       5.95696152       0.40476708       0.55701712      -0.43443171
S       -2.07546088       8.30188106       5.96704183       0.15126616      -0.02592614      -0.05705206
S        2.03049480       8.55003131       5.86961979       0.36629360      -1.23727240       0.08261698
S        6.16647884       8.48305496       5.78066069       0.24178147      -0.60979384       1.37410626
S        2.09089718       1.24735063      12.65302540       0.80166613      -1.29153288      -1.09781985
S        6.21534409       1.12077453      12.60121207      -0.19262776       0.25909002       0.16831239
S       10.26566843       1.26708647      12.61088437       1.02838241      -0.76616705      -0.32786949
S        0.07693266       4.70554855      12.67280410      -0.05998110       0.53856209      -0.05987617
S        4.13465934       4.79306000      12.69243111       0.69053864      -0.41647075      -0.54308371
S        8.34638505       4.79601455      12.82171227      -1.42008657      -0.58176226      -1.22362814
S       -2.02965497       8.22664006      12.51240829      -0.15060934       1.54493457       0.59083374
S        2.08033061       8.42762850      12.65162910       0.39260331      -0.54752287      -0.17310382
S        6.19299213       8.33698599      12.68208399       0.62960744       0.53885970      -0.96871410
