  72  72   0   0
  0.2550973E+02  0.1250651E-08  0.1250651E-08  0.1355924E-08  0.5000000E-15
  1.000000000000000E-004
  CAR 
 unknown system                          
      9.26171261    -12.22074722  301      1.24383203      1.00000000
    -12.221  0.0000E+00  0.0000E+00
    -12.149  0.0000E+00  0.0000E+00
    -12.078  0.0000E+00  0.0000E+00
    -12.006  0.0000E+00  0.0000E+00
    -11.934  0.0000E+00  0.0000E+00
    -11.863  0.0000E+00  0.0000E+00
    -11.791  0.0000E+00  0.0000E+00
    -11.719  0.0000E+00  0.0000E+00
    -11.648  0.0000E+00  0.0000E+00
    -11.576  0.0000E+00  0.0000E+00
    -11.505  0.2852E-13  0.2042E-14
    -11.433  0.2096E-07  0.1501E-08
    -11.361  0.3628E-03  0.2598E-04
    -11.290  0.1850E+00  0.1327E-01
    -11.218  0.4905E+01  0.3645E+00
    -11.147  0.1925E+02  0.1743E+01
    -11.075  0.3444E+02  0.4209E+01
    -11.003  0.5210E+02  0.7940E+01
    -10.932  0.7842E+02  0.1355E+02
    -10.860  0.1312E+03  0.2295E+02
    -10.789  0.2342E+03  0.3972E+02
    -10.717  0.3093E+03  0.6186E+02
    -10.645  0.1360E+03  0.7161E+02
    -10.574  0.5486E+01  0.7200E+02
    -10.502  0.8166E-02  0.7200E+02
    -10.431  0.2893E-06  0.7200E+02
    -10.359  0.2032E-12  0.7200E+02
    -10.287  0.0000E+00  0.7200E+02
    -10.216  0.0000E+00  0.7200E+02
    -10.144  0.0000E+00  0.7200E+02
    -10.073  0.0000E+00  0.7200E+02
    -10.001  0.0000E+00  0.7200E+02
     -9.929  0.0000E+00  0.7200E+02
     -9.858  0.0000E+00  0.7200E+02
     -9.786  0.0000E+00  0.7200E+02
     -9.714  0.0000E+00  0.7200E+02
     -9.643  0.0000E+00  0.7200E+02
     -9.571  0.0000E+00  0.7200E+02
     -9.500  0.0000E+00  0.7200E+02
     -9.428  0.0000E+00  0.7200E+02
     -9.356  0.0000E+00  0.7200E+02
     -9.285  0.0000E+00  0.7200E+02
     -9.213  0.0000E+00  0.7200E+02
     -9.142  0.0000E+00  0.7200E+02
     -9.070  0.0000E+00  0.7200E+02
     -8.998  0.0000E+00  0.7200E+02
     -8.927  0.0000E+00  0.7200E+02
     -8.855  0.0000E+00  0.7200E+02
     -8.784  0.0000E+00  0.7200E+02
     -8.712  0.0000E+00  0.7200E+02
     -8.640  0.0000E+00  0.7200E+02
     -8.569  0.0000E+00  0.7200E+02
     -8.497  0.0000E+00  0.7200E+02
     -8.426  0.0000E+00  0.7200E+02
     -8.354  0.0000E+00  0.7200E+02
     -8.282  0.0000E+00  0.7200E+02
     -8.211  0.0000E+00  0.7200E+02
     -8.139  0.0000E+00  0.7200E+02
     -8.067  0.0000E+00  0.7200E+02
     -7.996  0.0000E+00  0.7200E+02
     -7.924  0.0000E+00  0.7200E+02
     -7.853  0.0000E+00  0.7200E+02
     -7.781  0.0000E+00  0.7200E+02
     -7.709  0.0000E+00  0.7200E+02
     -7.638  0.0000E+00  0.7200E+02
     -7.566  0.0000E+00  0.7200E+02
     -7.495  0.0000E+00  0.7200E+02
     -7.423  0.0000E+00  0.7200E+02
     -7.351  0.0000E+00  0.7200E+02
     -7.280  0.0000E+00  0.7200E+02
     -7.208  0.0000E+00  0.7200E+02
     -7.137  0.0000E+00  0.7200E+02
     -7.065  0.0000E+00  0.7200E+02
     -6.993  0.0000E+00  0.7200E+02
     -6.922  0.1240E-15  0.7200E+02
     -6.850  0.1168E-08  0.7200E+02
     -6.779  0.1076E-03  0.7200E+02
     -6.707  0.2565E+00  0.7202E+02
     -6.635  0.2541E+02  0.7384E+02
     -6.564  0.2816E+03  0.9401E+02
     -6.492  0.7162E+03  0.1453E+03
     -6.420  0.6387E+03  0.1910E+03
     -6.349  0.4573E+03  0.2238E+03
     -6.277  0.4588E+03  0.2566E+03
     -6.206  0.6876E+03  0.3059E+03
     -6.134  0.7409E+03  0.3589E+03
     -6.062  0.2767E+03  0.3787E+03
     -5.991  0.8848E+02  0.3851E+03
     -5.919  0.8854E+02  0.3914E+03
     -5.848  0.1114E+03  0.3994E+03
     -5.776  0.1328E+03  0.4089E+03
     -5.704  0.1486E+03  0.4195E+03
     -5.633  0.1338E+03  0.4291E+03
     -5.561  0.3889E+02  0.4319E+03
     -5.490  0.1426E+01  0.4320E+03
     -5.418  0.2982E-02  0.4320E+03
     -5.346  0.1931E-06  0.4320E+03
     -5.275  0.2794E-12  0.4320E+03
     -5.203  0.0000E+00  0.4320E+03
     -5.132  0.0000E+00  0.4320E+03
     -5.060  0.0000E+00  0.4320E+03
     -4.988  0.0000E+00  0.4320E+03
     -4.917  0.0000E+00  0.4320E+03
     -4.845  0.0000E+00  0.4320E+03
     -4.773  0.0000E+00  0.4320E+03
     -4.702  0.0000E+00  0.4320E+03
     -4.630  0.0000E+00  0.4320E+03
     -4.559  0.0000E+00  0.4320E+03
     -4.487  0.0000E+00  0.4320E+03
     -4.415  0.0000E+00  0.4320E+03
     -4.344  0.0000E+00  0.4320E+03
     -4.272  0.0000E+00  0.4320E+03
     -4.201  0.0000E+00  0.4320E+03
     -4.129  0.0000E+00  0.4320E+03
     -4.057  0.0000E+00  0.4320E+03
     -3.986  0.0000E+00  0.4320E+03
     -3.914  0.0000E+00  0.4320E+03
     -3.843  0.0000E+00  0.4320E+03
     -3.771  0.0000E+00  0.4320E+03
     -3.699  0.0000E+00  0.4320E+03
     -3.628  0.0000E+00  0.4320E+03
     -3.556  0.3809E-11  0.4320E+03
     -3.485  0.4928E-06  0.4320E+03
     -3.413  0.1488E-02  0.4320E+03
     -3.341  0.1688E+00  0.4320E+03
     -3.270  0.1338E+01  0.4321E+03
     -3.198  0.6487E+01  0.4326E+03
     -3.127  0.2596E+02  0.4344E+03
     -3.055  0.5302E+02  0.4382E+03
     -2.983  0.7749E+02  0.4438E+03
     -2.912  0.1024E+03  0.4511E+03
     -2.840  0.9719E+02  0.4581E+03
     -2.768  0.6848E+02  0.4630E+03
     -2.697  0.5169E+02  0.4667E+03
     -2.625  0.4035E+02  0.4696E+03
     -2.554  0.4038E+02  0.4725E+03
     -2.482  0.5251E+02  0.4762E+03
     -2.410  0.4466E+02  0.4794E+03
     -2.339  0.2839E+02  0.4814E+03
     -2.267  0.2385E+02  0.4832E+03
     -2.196  0.2200E+02  0.4847E+03
     -2.124  0.2398E+02  0.4864E+03
     -2.052  0.2167E+02  0.4880E+03
     -1.981  0.2018E+02  0.4894E+03
     -1.909  0.2648E+02  0.4913E+03
     -1.838  0.1733E+02  0.4926E+03
     -1.766  0.1665E+02  0.4938E+03
     -1.694  0.2199E+02  0.4953E+03
     -1.623  0.3380E+02  0.4978E+03
     -1.551  0.4582E+02  0.5010E+03
     -1.480  0.5198E+02  0.5048E+03
     -1.408  0.2784E+02  0.5068E+03
     -1.336  0.4363E+02  0.5099E+03
     -1.265  0.5522E+02  0.5138E+03
     -1.193  0.3284E+02  0.5162E+03
     -1.121  0.3516E+02  0.5187E+03
     -1.050  0.5404E+02  0.5226E+03
     -0.978  0.6617E+02  0.5273E+03
     -0.907  0.6206E+02  0.5318E+03
     -0.835  0.4926E+02  0.5353E+03
     -0.763  0.5233E+02  0.5390E+03
     -0.692  0.7613E+02  0.5445E+03
     -0.620  0.6702E+02  0.5493E+03
     -0.549  0.7062E+02  0.5543E+03
     -0.477  0.6757E+02  0.5592E+03
     -0.405  0.7236E+02  0.5644E+03
     -0.334  0.8131E+02  0.5702E+03
     -0.262  0.9125E+02  0.5767E+03
     -0.191  0.9049E+02  0.5832E+03
     -0.119  0.1019E+03  0.5905E+03
     -0.047  0.1159E+03  0.5988E+03
      0.024  0.1066E+03  0.6064E+03
      0.096  0.9627E+02  0.6133E+03
      0.167  0.7472E+02  0.6187E+03
      0.239  0.7596E+02  0.6241E+03
      0.311  0.6244E+02  0.6286E+03
      0.382  0.5325E+02  0.6324E+03
      0.454  0.4565E+02  0.6357E+03
      0.526  0.3653E+02  0.6383E+03
      0.597  0.3858E+02  0.6411E+03
      0.669  0.2553E+02  0.6429E+03
      0.740  0.2722E+02  0.6448E+03
      0.812  0.1872E+02  0.6462E+03
      0.884  0.1530E+02  0.6473E+03
      0.955  0.8215E+01  0.6479E+03
      1.027  0.1994E+01  0.6480E+03
      1.098  0.7212E-01  0.6480E+03
      1.170  0.1479E-03  0.6480E+03
      1.242  0.9051E-08  0.6480E+03
      1.313  0.1171E-13  0.6480E+03
      1.385  0.0000E+00  0.6480E+03
      1.456  0.0000E+00  0.6480E+03
      1.528  0.0000E+00  0.6480E+03
      1.600  0.0000E+00  0.6480E+03
      1.671  0.0000E+00  0.6480E+03
      1.743  0.4700E-13  0.6480E+03
      1.814  0.1963E-07  0.6480E+03
      1.886  0.1546E-03  0.6480E+03
      1.958  0.2677E-01  0.6480E+03
      2.029  0.1525E+00  0.6480E+03
      2.101  0.4356E-01  0.6480E+03
      2.173  0.1159E-01  0.6480E+03
      2.244  0.2342E+00  0.6480E+03
      2.316  0.6587E+00  0.6481E+03
      2.387  0.8165E+00  0.6481E+03
      2.459  0.3940E+00  0.6482E+03
      2.531  0.1832E+01  0.6483E+03
      2.602  0.5206E+00  0.6483E+03
      2.674  0.1995E+00  0.6484E+03
      2.745  0.9800E+00  0.6484E+03
      2.817  0.1044E+01  0.6485E+03
      2.889  0.4079E+01  0.6488E+03
      2.960  0.2538E+01  0.6490E+03
      3.032  0.1907E+01  0.6491E+03
      3.103  0.6730E+00  0.6492E+03
      3.175  0.1904E+01  0.6493E+03
      3.247  0.2732E+01  0.6495E+03
      3.318  0.6629E+01  0.6500E+03
      3.390  0.4615E+01  0.6503E+03
      3.461  0.2027E+01  0.6504E+03
      3.533  0.4832E+01  0.6508E+03
      3.605  0.7058E+01  0.6513E+03
      3.676  0.6536E+01  0.6518E+03
      3.748  0.4712E+01  0.6521E+03
      3.819  0.1123E+02  0.6529E+03
      3.891  0.1738E+02  0.6541E+03
      3.963  0.1820E+02  0.6554E+03
      4.034  0.6223E+01  0.6559E+03
      4.106  0.7208E+01  0.6564E+03
      4.178  0.3272E+02  0.6587E+03
      4.249  0.5172E+02  0.6625E+03
      4.321  0.4079E+02  0.6654E+03
      4.392  0.2875E+02  0.6674E+03
      4.464  0.3018E+02  0.6696E+03
      4.536  0.3950E+02  0.6724E+03
      4.607  0.4685E+02  0.6758E+03
      4.679  0.5104E+02  0.6794E+03
      4.750  0.4056E+02  0.6823E+03
      4.822  0.3858E+02  0.6851E+03
      4.894  0.5583E+02  0.6891E+03
      4.965  0.6502E+02  0.6938E+03
      5.037  0.6832E+02  0.6986E+03
      5.108  0.4174E+02  0.7016E+03
      5.180  0.2241E+02  0.7032E+03
      5.252  0.2715E+02  0.7052E+03
      5.323  0.4142E+02  0.7081E+03
      5.395  0.4924E+02  0.7117E+03
      5.466  0.1745E+02  0.7129E+03
      5.538  0.1456E+02  0.7140E+03
      5.610  0.1956E+02  0.7154E+03
      5.681  0.1571E+02  0.7165E+03
      5.753  0.3088E+02  0.7187E+03
      5.825  0.1921E+02  0.7201E+03
      5.896  0.7933E+01  0.7206E+03
      5.968  0.1192E+02  0.7215E+03
      6.039  0.2281E+02  0.7231E+03
      6.111  0.2407E+02  0.7249E+03
      6.183  0.3570E+02  0.7274E+03
      6.254  0.8164E+02  0.7333E+03
      6.326  0.1093E+03  0.7411E+03
      6.397  0.9308E+02  0.7478E+03
      6.469  0.7881E+02  0.7534E+03
      6.541  0.6785E+02  0.7583E+03
      6.612  0.6854E+02  0.7632E+03
      6.684  0.6859E+02  0.7681E+03
      6.755  0.5697E+02  0.7722E+03
      6.827  0.4653E+02  0.7755E+03
      6.899  0.3570E+02  0.7780E+03
      6.970  0.3469E+02  0.7805E+03
      7.042  0.3408E+02  0.7830E+03
      7.113  0.3495E+02  0.7855E+03
      7.185  0.2137E+02  0.7870E+03
      7.257  0.1489E+02  0.7881E+03
      7.328  0.1887E+02  0.7894E+03
      7.400  0.3149E+02  0.7917E+03
      7.472  0.3137E+02  0.7939E+03
      7.543  0.4108E+02  0.7969E+03
      7.615  0.5293E+02  0.8007E+03
      7.686  0.1033E+03  0.8080E+03
      7.758  0.9958E+02  0.8152E+03
      7.830  0.7301E+02  0.8204E+03
      7.901  0.6583E+02  0.8251E+03
      7.973  0.5408E+02  0.8290E+03
      8.044  0.2568E+02  0.8308E+03
      8.116  0.1040E+02  0.8316E+03
      8.188  0.3406E+01  0.8318E+03
      8.259  0.1635E+01  0.8319E+03
      8.331  0.8028E+00  0.8320E+03
      8.402  0.5724E-01  0.8320E+03
      8.474  0.1755E-03  0.8320E+03
      8.546  0.1397E-07  0.8320E+03
      8.617  0.2329E-13  0.8320E+03
      8.689  0.0000E+00  0.8320E+03
      8.760  0.0000E+00  0.8320E+03
      8.832  0.0000E+00  0.8320E+03
      8.904  0.0000E+00  0.8320E+03
      8.975  0.0000E+00  0.8320E+03
      9.047  0.0000E+00  0.8320E+03
      9.118  0.0000E+00  0.8320E+03
      9.190  0.0000E+00  0.8320E+03
      9.262  0.0000E+00  0.8320E+03
