       N       E                     dE             d eps       ncg     rms          rms(c)
DAV:   1     0.406648443130E+04    0.40665E+04   -0.27011E+05 12512   0.117E+03
DAV:   2     0.214009998619E+02   -0.40451E+04   -0.38916E+04 13920   0.328E+02
DAV:   3    -0.258248130443E+03   -0.27965E+03   -0.27718E+03 14336   0.839E+01
DAV:   4    -0.263091257763E+03   -0.48431E+01   -0.48264E+01 14176   0.103E+01
DAV:   5    -0.263189917965E+03   -0.98660E-01   -0.98616E-01 14336   0.139E+00    0.440E+01
DAV:   6    -0.245592963274E+03    0.17597E+02   -0.38581E+01 16128   0.165E+01    0.349E+01
DAV:   7    -0.245428528401E+03    0.16443E+00   -0.15746E+01 14048   0.536E+00    0.130E+01
DAV:   8    -0.245161996676E+03    0.26653E+00   -0.26871E+00 14464   0.391E+00    0.261E+00
DAV:   9    -0.245149283842E+03    0.12713E-01   -0.36802E-01 14496   0.189E+00    0.857E-01
DAV:  10    -0.245145585962E+03    0.36979E-02   -0.21498E-02 14464   0.441E-01    0.365E-01
DAV:  11    -0.245146336315E+03   -0.75035E-03   -0.29671E-03 14560   0.842E-02    0.248E-01
DAV:  12    -0.245147602165E+03   -0.12659E-02   -0.11918E-03 13440   0.570E-02    0.132E-01
DAV:  13    -0.245147704842E+03   -0.10268E-03   -0.39373E-04 14496   0.267E-02    0.248E-02
DAV:  14    -0.245147725449E+03   -0.20607E-04   -0.32876E-05 14144   0.859E-03    0.689E-03
DAV:  15    -0.245147728796E+03   -0.33475E-05   -0.59642E-06 11808   0.291E-03    0.819E-03
DAV:  16    -0.245147729120E+03   -0.32366E-06   -0.14095E-07  9792   0.550E-04
   1 F= -.24514773E+03 E0= -.24514773E+03  d E =-.140788E-15
