 vasp.6.4.2 20Jul23 (build Sep 17 2025 15:35:10) complex                        
  
 executed on             LinuxIFC date 2025.10.09  12:42:59
 running   32 mpi-ranks, on    1 nodes
 distrk:  each k-point on   32 cores,    1 groups
 distr:  one band on NCORE=   1 cores,   32 groups


--------------------------------------------------------------------------------------------------------


 INCAR:
   YSTEM = CdS Calculation
   PREC = Accurate
   ENCUT = 400
   ISTART = 0
   ICHARG = 2
   ISMEAR = 0
   SIGMA = 0.05
   EDIFF = 1E-6
   NELM = 100
   LREAL = .FALSE.
   GGA = PS
   LWAVE = .FALSE.
   LCHARG = .FALSE.

 POTCAR:    PAW_PBE Cd 06Sep2000                  
 POTCAR:    PAW_PBE S 06Sep2000                   
 -----------------------------------------------------------------------------
|                                                                             |
|           W    W    AA    RRRRR   N    N  II  N    N   GGGG   !!!           |
|           W    W   A  A   R    R  NN   N  II  NN   N  G    G  !!!           |
|           W    W  A    A  R    R  N N  N  II  N N  N  G       !!!           |
|           W WW W  AAAAAA  RRRRR   N  N N  II  N  N N  G  GGG   !            |
|           WW  WW  A    A  R   R   N   NN  II  N   NN  G    G                |
|           W    W  A    A  R    R  N    N  II  N    N   GGGG   !!!           |
|                                                                             |
|     For optimal performance we recommend to set                             |
|       NCORE = 2 up to number-of-cores-per-socket                            |
|     NCORE specifies how many cores store one orbital (NPAR=cpu/NCORE).      |
|     This setting can greatly improve the performance of VASP for DFT.       |
|     The default, NCORE=1 might be grossly inefficient on modern             |
|     multi-core architectures or massively parallel machines. Do your        |
|     own testing! More info at https://www.vasp.at/wiki/index.php/NCORE      |
|     Unfortunately you need to use the default for GW and RPA                |
|     calculations (for HF NCORE is supported but not extensively tested      |
|     yet).                                                                   |
|                                                                             |
 -----------------------------------------------------------------------------

 POTCAR:    PAW_PBE Cd 06Sep2000                  
   SHA256 =  8b7ca71966beae5276c8bb910adb3ecc013a3354c27473914c94cd54c83be4f7 Cd/POTCAR             
   COPYR  = (c) Copyright 06Sep2000 Georg Kresse                                                    
   COPYR  = This file is part of the software VASP. Any use, copying, and all other rights are regul
   COPYR  = If you do not have a valid VASP license, you may not use, copy or distribute this file. 
   VRHFIN =Cd : s2 d10                                                                              
   LEXCH  = PE                                                                                      
   EATOM  =  1293.1815 eV,   95.0462 Ry                                                             
                                                                                                    
   TITEL  = PAW_PBE Cd 06Sep2000                                                                    
   LULTRA =        F    use ultrasoft PP ?                                                          
   IUNSCR =        1    unscreen: 0-lin 1-nonlin 2-no                                               
   RPACOR =    2.000    partial core radius                                                         
   POMASS =  112.411; ZVAL   =   12.000    mass and valenz                                          
   RCORE  =    2.300    outmost cutoff radius                                                       
   RWIGS  =    2.980; RWIGS  =    1.577    wigner-seitz radius (au A)                               
   ENMAX  =  274.336; ENMIN  =  205.752 eV                                                          
   RCLOC  =    2.054    cutoff for local pot                                                        
   LCOR   =        T    correct aug charges                                                         
   LPAW   =        T    paw PP                                                                      
   EAUG   =  456.106                                                                                
   DEXC   =    0.000                                                                                
   RMAX   =    2.358    core radius for proj-oper                                                   
   RAUG   =    1.300    factor for augmentation sphere                                              
   RDEP   =    2.450    radius for radial grids                                                     
   RDEPT  =    1.955    core radius for aug-charge                                                  
                                                                                                    
   Atomic configuration                                                                             
   12 entries                                                                                       
     n  l   j            E        occ.                                                              
     1  0  0.50    -26519.7817   2.0000                                                             
     2  0  0.50     -3936.9612   2.0000                                                             
     2  1  1.50     -3532.2230   6.0000                                                             
     3  0  0.50      -733.7908   2.0000                                                             
     3  1  1.50      -601.0792   6.0000                                                             
     3  2  2.50      -393.5307  10.0000                                                             
     4  0  0.50      -105.8977   2.0000                                                             
     4  1  1.50       -66.9488   6.0000                                                             
     4  2  2.50       -11.7331  10.0000                                                             
     5  0  0.50        -5.6592   2.0000                                                             
     5  1  0.50        -1.3606   0.0000                                                             
     4  3  2.50        -1.3606   0.0000                                                             
   Description                                                                                      
     l       E           TYP  RCUT    TYP  RCUT                                                     
     2    -11.7331479     23  2.300                                                                 
     2    -13.0937305     23  2.300                                                                 
     0     -5.6591502     23  2.300                                                                 
     0     -1.5561433     23  2.300                                                                 
     1     -2.7211652     23  2.300                                                                 
     1      8.3548275     23  2.300                                                                 
  local pseudopotential read in
  partial core-charges read in
  partial kinetic energy density read in
  atomic valenz-charges read in
  non local Contribution for L=           2  read in
    real space projection operators read in
  non local Contribution for L=           2  read in
    real space projection operators read in
  non local Contribution for L=           0  read in
    real space projection operators read in
  non local Contribution for L=           0  read in
    real space projection operators read in
  non local Contribution for L=           1  read in
    real space projection operators read in
  non local Contribution for L=           1  read in
    real space projection operators read in
    PAW grid and wavefunctions read in
 
   number of l-projection  operators is LMAX  =           6
   number of lm-projection operators is LMMAX =          18
 
 POTCAR:    PAW_PBE S 06Sep2000                   
   SHA256 =  0fc7481fb0695f01bdc6462160264c5c84044ae9ec85a907d398b887a2bc3132 S/POTCAR              
   COPYR  = (c) Copyright 06Sep2000 Georg Kresse                                                    
   COPYR  = This file is part of the software VASP. Any use, copying, and all other rights are regul
   COPYR  = If you do not have a valid VASP license, you may not use, copy or distribute this file. 
   VRHFIN =S : s2p4                                                                                 
   LEXCH  = PE                                                                                      
   EATOM  =   276.8230 eV,   20.3459 Ry                                                             
                                                                                                    
   TITEL  = PAW_PBE S 06Sep2000                                                                     
   LULTRA =        F    use ultrasoft PP ?                                                          
   IUNSCR =        1    unscreen: 0-lin 1-nonlin 2-no                                               
   RPACOR =    1.500    partial core radius                                                         
   POMASS =   32.066; ZVAL   =    6.000    mass and valenz                                          
   RCORE  =    1.900    outmost cutoff radius                                                       
   RWIGS  =    2.200; RWIGS  =    1.164    wigner-seitz radius (au A)                               
   ENMAX  =  258.689; ENMIN  =  194.016 eV                                                          
   ICORE  =        2    local potential                                                             
   LCOR   =        T    correct aug charges                                                         
   LPAW   =        T    paw PP                                                                      
   EAUG   =  335.092                                                                                
   DEXC   =    0.000                                                                                
   RMAX   =    1.942    core radius for proj-oper                                                   
   RAUG   =    1.300    factor for augmentation sphere                                              
   RDEP   =    1.954    radius for radial grids                                                     
   RDEPT  =    1.744    core radius for aug-charge                                                  
                                                                                                    
   Atomic configuration                                                                             
    6 entries                                                                                       
     n  l   j            E        occ.                                                              
     1  0  0.50     -2405.8406   2.0000                                                             
     2  0  0.50      -211.7007   2.0000                                                             
     2  1  1.50      -156.4958   6.0000                                                             
     3  0  0.50       -17.2562   2.0000                                                             
     3  1  0.50        -7.0085   4.0000                                                             
     3  2  1.50        -6.8029   0.0000                                                             
   Description                                                                                      
     l       E           TYP  RCUT    TYP  RCUT                                                     
     0    -17.2561641     23  1.900                                                                 
     0    -15.8743224     23  1.900                                                                 
     1     -7.0085400     23  1.900                                                                 
     1     -2.7779785     23  1.900                                                                 
     2     -6.8029130     23  1.900                                                                 
  local pseudopotential read in
  partial core-charges read in
  partial kinetic energy density read in
  atomic valenz-charges read in
  non local Contribution for L=           0  read in
    real space projection operators read in
  non local Contribution for L=           0  read in
    real space projection operators read in
  non local Contribution for L=           1  read in
    real space projection operators read in
  non local Contribution for L=           1  read in
    real space projection operators read in
    PAW grid and wavefunctions read in
 
   number of l-projection  operators is LMAX  =           4
   number of lm-projection operators is LMMAX =           8
 
 -----------------------------------------------------------------------------
|                                                                             |
|               ----> ADVICE to this user running VASP <----                  |
|                                                                             |
|     You have a (more or less) 'large supercell' and for larger cells it     |
|     might be more efficient to use real-space projection operators.         |
|     Therefore, try LREAL= Auto in the INCAR file.                           |
|     Mind: For very accurate calculation, you might also keep the            |
|     reciprocal projection scheme (i.e. LREAL=.FALSE.).                      |
|                                                                             |
 -----------------------------------------------------------------------------

 -----------------------------------------------------------------------------
|                                                                             |
|               ----> ADVICE to this user running VASP <----                  |
|                                                                             |
|     You enforced a specific xc type in the INCAR file but a different       |
|     type was found in the POTCAR file.                                      |
|     I HOPE YOU KNOW WHAT YOU ARE DOING!                                     |
|                                                                             |
 -----------------------------------------------------------------------------

  PAW_PBE Cd 06Sep2000                  :
 energy of atom  1       EATOM=-1293.1815
 kinetic energy error for atom=    0.0223 (will be added to EATOM!!)
  PAW_PBE S 06Sep2000                   :
 energy of atom  2       EATOM= -276.8230
 kinetic energy error for atom=    0.0046 (will be added to EATOM!!)
 
 
 POSCAR: Cd S
  positions in direct lattice
  No initial velocities read in
 exchange correlation table for  LEXCH =       14
   RHO(1)=    0.500       N(1)  =     2000
   RHO(2)=  100.500       N(2)  =     4000
 


--------------------------------------------------------------------------------------------------------


 ion  position               nearest neighbor table
   1  0.222  0.111  0.250-  51 2.55  63 2.55  59 2.55  50 2.55
   2  0.222  0.778  0.750-  61 2.55  57 2.55  47 2.55  60 2.55
   3  0.111  0.889  0.500-  58 2.55  50 2.55  44 2.55  61 2.55
   4  0.556  0.778  0.250-  49 2.55  48 2.55  45 2.55  70 2.55
   5  0.444  0.889  0.500-  70 2.55  58 2.55  62 2.55  47 2.55
   6  0.556  0.111  0.250-  63 2.55  38 2.55  49 2.55  62 2.55
   7  0.444  0.222  0.000-  64 2.55  52 2.55  68 2.55  63 2.55
   8  0.889  0.444  0.750-  40 2.55  43 2.55  57 2.55  42 2.55
   9  0.778  0.556  0.000-  42 2.55  67 2.55  68 2.55  41 2.55
  10  0.556  0.111  0.750-  65 2.55  40 2.55  47 2.55  64 2.55
  11  0.444  0.222  0.500-  62 2.55  50 2.55  66 2.55  65 2.55
  12  0.556  0.444  0.250-  41 2.55  63 2.55  48 2.55  66 2.55
  13  0.444  0.556  0.000-  56 2.55  71 2.55  68 2.55  48 2.55
  14  0.778  0.222  0.500-  37 2.55  39 2.55  62 2.55  40 2.55
  15  0.889  0.111  0.750-  40 2.55  53 2.55  72 2.55  46 2.55
  16  0.889  0.444  0.250-  38 2.55  41 2.55  55 2.55  39 2.55
  17  0.556  0.444  0.750-  43 2.55  65 2.55  69 2.55  68 2.55
  18  0.778  0.556  0.500-  39 2.55  44 2.55  66 2.55  43 2.55
  19  0.222  0.778  0.250-  59 2.55  55 2.55  49 2.55  58 2.55
  20  0.111  0.222  0.000-  52 2.55  56 2.55  46 2.55  51 2.55
  21  0.778  0.889  0.500-  44 2.55  70 2.55  37 2.55  72 2.55
  22  0.889  0.778  0.750-  72 2.55  43 2.55  61 2.55  67 2.55
  23  0.222  0.111  0.750-  53 2.55  65 2.55  61 2.55  52 2.55
  24  0.111  0.222  0.500-  50 2.55  54 2.55  37 2.55  53 2.55
  25  0.556  0.778  0.750-  47 2.55  69 2.55  72 2.55  71 2.55
  26  0.111  0.889  0.000-  60 2.55  52 2.55  67 2.55  59 2.55
  27  0.889  0.111  0.250-  38 2.55  45 2.55  51 2.55  37 2.55
  28  0.111  0.556  0.000-  56 2.55  60 2.55  42 2.55  55 2.55
  29  0.778  0.889  0.000-  67 2.55  71 2.55  46 2.55  45 2.55
  30  0.889  0.778  0.250-  45 2.55  41 2.55  59 2.55  44 2.55
  31  0.222  0.444  0.750-  53 2.55  57 2.55  69 2.55  56 2.55
  32  0.111  0.556  0.500-  54 2.55  58 2.55  39 2.55  57 2.55
  33  0.778  0.222  0.000-  46 2.55  42 2.55  64 2.55  38 2.55
  34  0.444  0.889  0.000-  71 2.55  60 2.55  64 2.55  49 2.55
  35  0.222  0.444  0.250-  48 2.55  51 2.55  55 2.55  54 2.55
  36  0.444  0.556  0.500-  54 2.55  70 2.55  66 2.55  69 2.55
  37  0.889  0.111  0.438-  14 2.55  21 2.55  24 2.55  27 2.55
  38  0.778  0.222  0.188-  27 2.55  16 2.55   6 2.55  33 2.55
  39  0.889  0.444  0.438-  14 2.55  18 2.55  32 2.55  16 2.55
  40  0.778  0.222  0.688-  15 2.55  10 2.55   8 2.55  14 2.55
  41  0.778  0.556  0.188-  12 2.55  16 2.55  30 2.55   9 2.55
  42  0.889  0.444  0.938-   9 2.55  33 2.55  28 2.55   8 2.55
  43  0.778  0.556  0.688-   8 2.55  17 2.55  22 2.55  18 2.55
  44  0.889  0.778  0.438-  21 2.55  18 2.55   3 2.55  30 2.55
  45  0.778  0.889  0.188-  30 2.55   4 2.55  27 2.55  29 2.55
  46  0.889  0.111  0.938-  33 2.55  29 2.55  20 2.55  15 2.55
  47  0.444  0.889  0.688-  25 2.55   2 2.55  10 2.55   5 2.55
  48  0.444  0.556  0.188-   4 2.55  35 2.55  12 2.55  13 2.55
  49  0.444  0.889  0.188-   4 2.55  19 2.55   6 2.55  34 2.55
  50  0.222  0.111  0.438-  24 2.55  11 2.55   3 2.55   1 2.55
  51  0.111  0.222  0.188-   1 2.55  35 2.55  27 2.55  20 2.55
  52  0.222  0.111  0.938-  20 2.55   7 2.55  26 2.55  23 2.55
  53  0.111  0.222  0.688-  23 2.55  31 2.55  15 2.55  24 2.55
  54  0.222  0.444  0.438-  24 2.55  32 2.55  36 2.55  35 2.55
  55  0.111  0.556  0.188-  19 2.55  35 2.55  16 2.55  28 2.55
  56  0.222  0.444  0.938-  13 2.55  20 2.55  28 2.55  31 2.55
  57  0.111  0.556  0.688-   2 2.55  31 2.55   8 2.55  32 2.55
  58  0.222  0.778  0.438-   3 2.55   5 2.55  32 2.55  19 2.55
  59  0.111  0.889  0.188-  19 2.55   1 2.55  30 2.55  26 2.55
  60  0.222  0.778  0.938-  26 2.55  28 2.55  34 2.55   2 2.55
  61  0.111  0.889  0.688-   2 2.55  22 2.55  23 2.55   3 2.55
  62  0.556  0.111  0.438-  11 2.55  14 2.55   5 2.55   6 2.55
  63  0.444  0.222  0.188-   6 2.55   1 2.55  12 2.55   7 2.55
  64  0.556  0.111  0.938-   7 2.55  33 2.55  34 2.55  10 2.55
  65  0.444  0.222  0.688-  10 2.55  17 2.55  23 2.55  11 2.55
  66  0.556  0.444  0.438-  11 2.55  18 2.55  36 2.55  12 2.55
  67  0.889  0.778  0.938-  29 2.55   9 2.55  26 2.55  22 2.55
  68  0.556  0.444  0.938-   7 2.55   9 2.55  13 2.55  17 2.55
  69  0.444  0.556  0.688-  25 2.55  31 2.55  17 2.55  36 2.55
  70  0.556  0.778  0.438-   5 2.55  21 2.55  36 2.55   4 2.55
  71  0.556  0.778  0.938-  34 2.55  29 2.55  13 2.55  25 2.55
  72  0.778  0.889  0.688-  22 2.55  25 2.55  15 2.55  21 2.55
 
  LATTYP: Found a hexagonal cell.
 ALAT       =    12.5065142985
 C/A-ratio  =     1.0841737751
  
  Lattice vectors:
  
 A1 = (   6.2532571493, -10.8309590953,   0.0000000000)
 A2 = (   6.2532571493,  10.8309590953,   0.0000000000)
 A3 = (   0.0000000000,   0.0000000000,  13.5592348200)


Analysis of symmetry for initial positions (statically):
=====================================================================
 Subroutine PRICEL returns following result:
 
  LATTYP: Found a hexagonal cell.
 ALAT       =     4.1688380995
 C/A-ratio  =     1.6262606626
  
  Lattice vectors:
  
 A1 = (   2.0844190498,  -3.6103196984,   0.0000000000)
 A2 = (   2.0844190498,   3.6103196984,   0.0000000000)
 A3 = (   0.0000000000,   0.0000000000,   6.7796174100)
 
  18 primitive cells build up your supercell.
 

 Routine SETGRP: Setting up the symmetry group for a 
 hexagonal supercell.


 Subroutine GETGRP returns: Found 12 space group operations
 (whereof  6 operations were pure point group operations)
 out of a pool of 24 trial point group operations.


The static configuration has the point symmetry C_3v.
 The point group associated with its full space group is C_6v.


Analysis of symmetry for dynamics (positions and initial velocities):
=====================================================================
 Subroutine PRICEL returns following result:
 
  LATTYP: Found a hexagonal cell.
 ALAT       =     4.1688380995
 C/A-ratio  =     1.6262606626
  
  Lattice vectors:
  
 A1 = (   2.0844190498,  -3.6103196984,   0.0000000000)
 A2 = (   2.0844190498,   3.6103196984,   0.0000000000)
 A3 = (   0.0000000000,   0.0000000000,   6.7796174100)
 
  18 primitive cells build up your supercell.
 

 Routine SETGRP: Setting up the symmetry group for a 
 hexagonal supercell.


 Subroutine GETGRP returns: Found 12 space group operations
 (whereof  6 operations were pure point group operations)
 out of a pool of 24 trial point group operations.


The dynamic configuration has the point symmetry C_3v.
 The point group associated with its full space group is C_6v.


 Subroutine INISYM returns: Found 12 space group operations
 (whereof  6 operations are pure point group operations),
 and found    18 'primitive' translations


----------------------------------------------------------------------------------------

                                     Primitive cell                                     

  volume of cell :     102.0389

  direct lattice vectors                    reciprocal lattice vectors
     2.084419050 -3.610319698  0.000000000     0.239874991 -0.138491890  0.000000000
     2.084419050  3.610319698  0.000000000     0.239874991  0.138491890  0.000000000
     0.000000000  0.000000000  6.779617410     0.000000000  0.000000000  0.147500949

  length of vectors
     4.168838100  4.168838100  6.779617410     0.276983781  0.276983781  0.147500949

  position of ions in fractional coordinates (direct lattice)
     0.666666667  0.333333333  0.500224370
     0.333333333  0.666666667  0.000224370
     0.666666667  0.333333333  0.876775630
     0.333333333  0.666666667  0.376775630

  ion indices of the primitive-cell ions
   primitive index   ion index
                 1           1
                 2          24
                 3          50
                 4          51

----------------------------------------------------------------------------------------

 
 
 KPOINTS: Automatic mesh                          

Automatic generation of k-mesh.
 Grid dimensions read from file:
 generate k-points for:    5    5    5

 Generating k-lattice:

  Cartesian coordinates                     Fractional coordinates (reciprocal lattice)
     0.015991666 -0.009232793  0.000000000     0.200000000  0.000000000  0.000000000
     0.015991666  0.009232793  0.000000000     0.000000000  0.200000000  0.000000000
     0.000000000  0.000000000  0.014750095     0.000000000  0.000000000  0.200000000

  Length of vectors
     0.018465585  0.018465585  0.014750095

  Shift w.r.t. Gamma in fractional coordinates (k-lattice)
     0.000000000  0.000000000  0.000000000

 
 Subroutine IBZKPT returns following result:
 ===========================================
 
 Found     15 irreducible k-points:
 
 Following reciprocal coordinates:
            Coordinates               Weight
  0.000000  0.000000  0.000000      1.000000
  0.200000 -0.000000  0.000000      6.000000
  0.400000  0.000000  0.000000      6.000000
  0.200000  0.200000  0.000000      6.000000
  0.400000  0.200000  0.000000      6.000000
  0.000000  0.000000  0.200000      2.000000
  0.200000 -0.000000  0.200000     12.000000
  0.400000  0.000000  0.200000     12.000000
  0.200000  0.200000  0.200000     12.000000
  0.400000  0.200000  0.200000     12.000000
  0.000000  0.000000  0.400000      2.000000
  0.200000 -0.000000  0.400000     12.000000
  0.400000  0.000000  0.400000     12.000000
  0.200000  0.200000  0.400000     12.000000
  0.400000  0.200000  0.400000     12.000000
 
 Following cartesian coordinates:
            Coordinates               Weight
  0.000000  0.000000  0.000000      1.000000
  0.015992 -0.009233  0.000000      6.000000
  0.031983 -0.018466  0.000000      6.000000
  0.031983 -0.000000  0.000000      6.000000
  0.047975 -0.009233  0.000000      6.000000
  0.000000  0.000000  0.014750      2.000000
  0.015992 -0.009233  0.014750     12.000000
  0.031983 -0.018466  0.014750     12.000000
  0.031983 -0.000000  0.014750     12.000000
  0.047975 -0.009233  0.014750     12.000000
  0.000000  0.000000  0.029500      2.000000
  0.015992 -0.009233  0.029500     12.000000
  0.031983 -0.018466  0.029500     12.000000
  0.031983 -0.000000  0.029500     12.000000
  0.047975 -0.009233  0.029500     12.000000
 


--------------------------------------------------------------------------------------------------------




 Dimension of arrays:
   k-points           NKPTS =     15   k-points in BZ     NKDIM =     15   number of bands    NBANDS=    416
   number of dos      NEDOS =    301   number of ions     NIONS =     72
   non local maximal  LDIM  =      6   non local SUM 2l+1 LMDIM =     18
   total plane-waves  NPLWV = 635040
   max r-space proj   IRMAX =      1   max aug-charges    IRDMAX=  14819
   dimension x,y,z NGX =    84 NGY =   84 NGZ =   90
   dimension x,y,z NGXF=   168 NGYF=  168 NGZF=  180
   support grid    NGXF=   168 NGYF=  168 NGZF=  180
   ions per type =              36  36
   NGX,Y,Z   is equivalent  to a cutoff of  11.17, 11.17, 11.03 a.u.
   NGXF,Y,Z  is equivalent  to a cutoff of  22.33, 22.33, 22.07 a.u.

 SYSTEM =  unknown system                          
 POSCAR =  Cd S                                    

 Startparameter for this run:
   NWRITE =      2    write-flag & timer
   PREC   = accura    normal or accurate (medium, high low for compatibility)
   ISTART =      0    job   : 0-new  1-cont  2-samecut
   ICHARG =      2    charge: 1-file 2-atom 10-const
   ISPIN  =      1    spin polarized calculation?
   LNONCOLLINEAR =      F non collinear calculations
   LSORBIT =      F    spin-orbit coupling
   INIWAV =      1    electr: 0-lowe 1-rand  2-diag
   LASPH  =      F    aspherical Exc in radial PAW
 Electronic Relaxation 1
   ENCUT  =  400.0 eV  29.40 Ry    5.42 a.u.  20.39 20.39 22.11*2*pi/ulx,y,z
   ENINI  =  400.0     initial cutoff
   ENAUG  =  456.1 eV  augmentation charge cutoff
   NELM   =    100;   NELMIN=  2; NELMDL= -5     # of ELM steps 
   EDIFF  = 0.1E-05   stopping-criterion for ELM
   LREAL  =      F    real-space projection
   NLSPLINE    = F    spline interpolate recip. space projectors
   LCOMPAT=      F    compatible to vasp.4.4
   GGA_COMPAT  = T    GGA compatible to vasp.4.4-vasp.4.6
   LMAXPAW     = -100 max onsite density
   LMAXMIX     =    2 max onsite mixed and CHGCAR
   VOSKOWN=      0    Vosko Wilk Nusair interpolation
   ROPT   =    0.00000   0.00000
 Ionic relaxation
   EDIFFG = 0.1E-04   stopping-criterion for IOM
   NSW    =      0    number of steps for IOM
   NBLOCK =      1;   KBLOCK =      1    inner block; outer block 
   IBRION =     -1    ionic relax: 0-MD 1-quasi-New 2-CG
   NFREE  =      0    steps in history (QN), initial steepest desc. (CG)
   ISIF   =      2    stress and relaxation
   IWAVPR =     10    prediction:  0-non 1-charg 2-wave 3-comb
   ISYM   =      2    0-nonsym 1-usesym 2-fastsym
   LCORR  =      T    Harris-Foulkes like correction to forces

   POTIM  = 0.5000    time-step for ionic-motion
   TEIN   =    0.0    initial temperature
   TEBEG  =    0.0;   TEEND  =   0.0 temperature during run
   SMASS  =  -3.00    Nose mass-parameter (am)
   estimated Nose-frequenzy (Omega)   =  0.10E-29 period in steps = 0.13E+47 mass=  -0.357E-26a.u.
   SCALEE = 1.0000    scale energy and forces
   NPACO  =    256;   APACO  = 10.0  distance and # of slots for P.C.
   PSTRESS=    0.0 pullay stress

  Mass of Ions in am
   POMASS = 112.41 32.07
  Ionic Valenz
   ZVAL   =  12.00  6.00
  Atomic Wigner-Seitz radii
   RWIGS  =  -1.00 -1.00
  virtual crystal weights 
   VCA    =   1.00  1.00
   NELECT =     648.0000    total number of electrons
   NUPDOWN=      -1.0000    fix difference up-down

 DOS related values:
   EMIN   =  10.00;   EMAX   =-10.00  energy-range for DOS
   EFERMI =   0.00;   METHOD = LEGACY      
   ISMEAR =     0;   SIGMA  =   0.05  broadening in eV -4-tet -1-fermi 0-gaus

 Electronic relaxation 2 (details)
   IALGO  =     38    algorithm
   LDIAG  =      T    sub-space diagonalisation (order eigenvalues)
   LSUBROT=      F    optimize rotation matrix (better conditioning)
   TURBO    =      0    0=normal 1=particle mesh
   IRESTART =      0    0=no restart 2=restart with 2 vectors
   NREBOOT  =      0    no. of reboots
   NMIN     =      0    reboot dimension
   EREF     =   0.00    reference energy to select bands
   IMIX   =      4    mixing-type and parameters
     AMIX     =   0.40;   BMIX     =  1.00
     AMIX_MAG =   1.60;   BMIX_MAG =  1.00
     AMIN     =   0.10
     WC   =   100.;   INIMIX=   1;  MIXPRE=   1;  MAXMIX= -45

 Intra band minimization:
   WEIMIN = 0.0000     energy-eigenvalue tresh-hold
   EBREAK =  0.60E-09  absolut break condition
   DEPER  =   0.30     relativ break condition  

   TIME   =   0.40     timestep for ELM

  volume/ion in A,a.u.               =      25.51       172.15
  Fermi-wavevector in a.u.,A,eV,Ry     =   1.156788  2.186012 18.206746  1.338158
  Thomas-Fermi vector in A             =   2.293405
 
 Write flags
   LWAVE        =      F    write WAVECAR
   LDOWNSAMPLE  =      F    k-point downsampling of WAVECAR
   LCHARG       =      F    write CHGCAR
   LVTOT        =      F    write LOCPOT, total local potential
   LVHAR        =      F    write LOCPOT, Hartree potential only
   LELF         =      F    write electronic localiz. function (ELF)
   LORBIT       =      0    0 simple, 1 ext, 2 COOP (PROOUT), +10 PAW based schemes


 Dipole corrections
   LMONO  =      F    monopole corrections only (constant potential shift)
   LDIPOL =      F    correct potential (dipole corrections)
   IDIPOL =      0    1-x, 2-y, 3-z, 4-all directions 
   EPSILON=  1.0000000 bulk dielectric constant

 Exchange correlation treatment:
   GGA     =    PS    GGA type
   LEXCH   =    14    internal setting for exchange type
   LIBXC   =     F    Libxc                    
   VOSKOWN =     0    Vosko Wilk Nusair interpolation
   LHFCALC =     F    Hartree Fock is set to
   LHFONE  =     F    Hartree Fock one center treatment
   AEXX    =    0.0000 exact exchange contribution

 Linear response parameters
   LEPSILON=     F    determine dielectric tensor
   LRPA    =     F    only Hartree local field effects (RPA)
   LNABLA  =     F    use nabla operator in PAW spheres
   LVEL    =     F    velocity operator in full k-point grid
   CSHIFT  =0.1000    complex shift for real part using Kramers Kronig
   OMEGAMAX=  -1.0    maximum frequency
   DEG_THRESHOLD= 0.2000000E-02 threshold for treating states as degnerate
   RTIME   =   -0.100 relaxation time in fs
  (WPLASMAI=    0.000 imaginary part of plasma frequency in eV, 0.658/RTIME)
   DFIELD  = 0.0000000 0.0000000 0.0000000 field for delta impulse in time
 
  Optional k-point grid parameters
   LKPOINTS_OPT  =     F    use optional k-point grid
   KPOINTS_OPT_MODE=     1    mode for optional k-point grid
 
 Orbital magnetization related:
   ORBITALMAG=     F  switch on orbital magnetization
   LCHIMAG   =     F  perturbation theory with respect to B field
   DQ        =  0.001000  dq finite difference perturbation B field
   LLRAUG    =     F  two centre corrections for induced B field
   LBONE     =     F  B-component reconstruction in AE one-centre
   LVGVCALC  =     T  calculate vGv susceptibility
   LVGVAPPL  =     F  apply vGv susceptibility instead of pGv for G=0

 Random number generation:
   RANDOM_GENERATOR = DEFAULT
   PCG_SEED         = not used


--------------------------------------------------------------------------------------------------------


 Static calculation
 charge density and potential will be updated during run
 non-spin polarized calculation
 Variant of blocked Davidson
 Davidson routine will perform the subspace rotation
 perform sub-space diagonalisation
    after iterative eigenvector-optimisation
 modified Broyden-mixing scheme, WC =      100.0
 initial mixing is a Kerker type mixing with AMIX =  0.4000 and BMIX =      1.0000
 Hartree-type preconditioning will be used
 using additional bands           92
 reciprocal scheme for non local part
 use partial core corrections
 calculate Harris-corrections to forces 
   (improved forces if not selfconsistent)
 use gradient corrections 
 use of overlap-Matrix (Vanderbilt PP)
 Gauss-broadening in eV      SIGMA  =   0.05


--------------------------------------------------------------------------------------------------------


  energy-cutoff  :      400.00
  volume of cell :     1836.70
      direct lattice vectors                 reciprocal lattice vectors
     6.253257149-10.830959095  0.000000000     0.079958330 -0.046163963  0.000000000
     6.253257149 10.830959095  0.000000000     0.079958330  0.046163963  0.000000000
     0.000000000  0.000000000 13.559234820     0.000000000  0.000000000  0.073750474

  length of vectors
    12.506514299 12.506514299 13.559234820     0.092327927  0.092327927  0.073750474


 
 k-points in units of 2pi/SCALE and weight: Automatic mesh                          
   0.00000000  0.00000000  0.00000000       0.008
   0.01599167 -0.00923279  0.00000000       0.048
   0.03198333 -0.01846559  0.00000000       0.048
   0.03198333 -0.00000000  0.00000000       0.048
   0.04797500 -0.00923279  0.00000000       0.048
   0.00000000  0.00000000  0.01475009       0.016
   0.01599167 -0.00923279  0.01475009       0.096
   0.03198333 -0.01846559  0.01475009       0.096
   0.03198333 -0.00000000  0.01475009       0.096
   0.04797500 -0.00923279  0.01475009       0.096
   0.00000000  0.00000000  0.02950019       0.016
   0.01599167 -0.00923279  0.02950019       0.096
   0.03198333 -0.01846559  0.02950019       0.096
   0.03198333 -0.00000000  0.02950019       0.096
   0.04797500 -0.00923279  0.02950019       0.096
 
 k-points in reciprocal lattice and weights: Automatic mesh                          
   0.00000000  0.00000000  0.00000000       0.008
   0.20000000 -0.00000000  0.00000000       0.048
   0.40000000  0.00000000  0.00000000       0.048
   0.20000000  0.20000000  0.00000000       0.048
   0.40000000  0.20000000  0.00000000       0.048
   0.00000000  0.00000000  0.20000000       0.016
   0.20000000 -0.00000000  0.20000000       0.096
   0.40000000  0.00000000  0.20000000       0.096
   0.20000000  0.20000000  0.20000000       0.096
   0.40000000  0.20000000  0.20000000       0.096
   0.00000000  0.00000000  0.40000000       0.016
   0.20000000 -0.00000000  0.40000000       0.096
   0.40000000  0.00000000  0.40000000       0.096
   0.20000000  0.20000000  0.40000000       0.096
   0.40000000  0.20000000  0.40000000       0.096
 
 position of ions in fractional coordinates (direct lattice) 
   0.22222222  0.11111111  0.25011218
   0.22222222  0.77777778  0.75011218
   0.11111111  0.88888889  0.50011218
   0.55555556  0.77777778  0.25011218
   0.44444444  0.88888889  0.50011218
   0.55555556  0.11111111  0.25011218
   0.44444444  0.22222222  0.00011218
   0.88888889  0.44444444  0.75011218
   0.77777778  0.55555556  0.00011218
   0.55555556  0.11111111  0.75011218
   0.44444444  0.22222222  0.50011218
   0.55555556  0.44444444  0.25011218
   0.44444444  0.55555556  0.00011218
   0.77777778  0.22222222  0.50011218
   0.88888889  0.11111111  0.75011218
   0.88888889  0.44444444  0.25011218
   0.55555556  0.44444444  0.75011218
   0.77777778  0.55555556  0.50011218
   0.22222222  0.77777778  0.25011218
   0.11111111  0.22222222  0.00011218
   0.77777778  0.88888889  0.50011218
   0.88888889  0.77777778  0.75011218
   0.22222222  0.11111111  0.75011218
   0.11111111  0.22222222  0.50011218
   0.55555556  0.77777778  0.75011218
   0.11111111  0.88888889  0.00011218
   0.88888889  0.11111111  0.25011218
   0.11111111  0.55555556  0.00011218
   0.77777778  0.88888889  0.00011218
   0.88888889  0.77777778  0.25011218
   0.22222222  0.44444444  0.75011218
   0.11111111  0.55555556  0.50011218
   0.77777778  0.22222222  0.00011218
   0.44444444  0.88888889  0.00011218
   0.22222222  0.44444444  0.25011218
   0.44444444  0.55555556  0.50011218
   0.88888889  0.11111111  0.43838781
   0.77777778  0.22222222  0.18838781
   0.88888889  0.44444444  0.43838781
   0.77777778  0.22222222  0.68838781
   0.77777778  0.55555556  0.18838781
   0.88888889  0.44444444  0.93838781
   0.77777778  0.55555556  0.68838781
   0.88888889  0.77777778  0.43838781
   0.77777778  0.88888889  0.18838781
   0.88888889  0.11111111  0.93838781
   0.44444444  0.88888889  0.68838781
   0.44444444  0.55555556  0.18838781
   0.44444444  0.88888889  0.18838781
   0.22222222  0.11111111  0.43838781
   0.11111111  0.22222222  0.18838781
   0.22222222  0.11111111  0.93838781
   0.11111111  0.22222222  0.68838781
   0.22222222  0.44444444  0.43838781
   0.11111111  0.55555556  0.18838781
   0.22222222  0.44444444  0.93838781
   0.11111111  0.55555556  0.68838781
   0.22222222  0.77777778  0.43838781
   0.11111111  0.88888889  0.18838781
   0.22222222  0.77777778  0.93838781
   0.11111111  0.88888889  0.68838781
   0.55555556  0.11111111  0.43838781
   0.44444444  0.22222222  0.18838781
   0.55555556  0.11111111  0.93838781
   0.44444444  0.22222222  0.68838781
   0.55555556  0.44444444  0.43838781
   0.88888889  0.77777778  0.93838781
   0.55555556  0.44444444  0.93838781
   0.44444444  0.55555556  0.68838781
   0.55555556  0.77777778  0.43838781
   0.55555556  0.77777778  0.93838781
   0.77777778  0.88888889  0.68838781
 
 position of ions in cartesian coordinates  (Angst):
   2.08441905 -1.20343990  3.39132985
   6.25325715  6.01719950 10.17094726
   6.25325715  8.42407930  6.78113855
   8.33767620  2.40687980  3.39132985
   8.33767620  4.81375960  6.78113855
   4.16883810 -4.81375960  3.39132985
   4.16883810 -2.40687980  0.00152114
   8.33767620 -4.81375960 10.17094726
   8.33767620 -2.40687980  0.00152114
   4.16883810 -4.81375960 10.17094726
   4.16883810 -2.40687980  6.78113855
   6.25325715 -1.20343990  3.39132985
   6.25325715  1.20343990  0.00152114
   6.25325715 -6.01719950  6.78113855
   6.25325715 -8.42407930 10.17094726
   8.33767620 -4.81375960  3.39132985
   6.25325715 -1.20343990 10.17094726
   8.33767620 -2.40687980  6.78113855
   6.25325715  6.01719950  3.39132985
   2.08441905  1.20343990  0.00152114
  10.42209525  1.20343990  6.78113855
  10.42209525 -1.20343990 10.17094726
   2.08441905 -1.20343990 10.17094726
   2.08441905  1.20343990  6.78113855
   8.33767620  2.40687980 10.17094726
   6.25325715  8.42407930  0.00152114
   6.25325715 -8.42407930  3.39132985
   4.16883810  4.81375960  0.00152114
  10.42209525  1.20343990  0.00152114
  10.42209525 -1.20343990  3.39132985
   4.16883810  2.40687980 10.17094726
   4.16883810  4.81375960  6.78113855
   6.25325715 -6.01719950  0.00152114
   8.33767620  4.81375960  0.00152114
   4.16883810  2.40687980  3.39132985
   6.25325715  1.20343990  6.78113855
   6.25325715 -8.42407930  5.94420333
   6.25325715 -6.01719950  2.55439462
   8.33767620 -4.81375960  5.94420333
   6.25325715 -6.01719950  9.33401203
   8.33767620 -2.40687980  2.55439462
   8.33767620 -4.81375960 12.72382074
   8.33767620 -2.40687980  9.33401203
  10.42209525 -1.20343990  5.94420333
  10.42209525  1.20343990  2.55439462
   6.25325715 -8.42407930 12.72382074
   8.33767620  4.81375960  9.33401203
   6.25325715  1.20343990  2.55439462
   8.33767620  4.81375960  2.55439462
   2.08441905 -1.20343990  5.94420333
   2.08441905  1.20343990  2.55439462
   2.08441905 -1.20343990 12.72382074
   2.08441905  1.20343990  9.33401203
   4.16883810  2.40687980  5.94420333
   4.16883810  4.81375960  2.55439462
   4.16883810  2.40687980 12.72382074
   4.16883810  4.81375960  9.33401203
   6.25325715  6.01719950  5.94420333
   6.25325715  8.42407930  2.55439462
   6.25325715  6.01719950 12.72382074
   6.25325715  8.42407930  9.33401203
   4.16883810 -4.81375960  5.94420333
   4.16883810 -2.40687980  2.55439462
   4.16883810 -4.81375960 12.72382074
   4.16883810 -2.40687980  9.33401203
   6.25325715 -1.20343990  5.94420333
  10.42209525 -1.20343990 12.72382074
   6.25325715 -1.20343990 12.72382074
   6.25325715  1.20343990  9.33401203
   8.33767620  2.40687980  5.94420333
   8.33767620  2.40687980 12.72382074
  10.42209525  1.20343990  9.33401203
 


--------------------------------------------------------------------------------------------------------


 k-point   1 :   0.0000 0.0000 0.0000  plane waves:   33411
 k-point   2 :   0.2000-0.0000 0.0000  plane waves:   33359
 k-point   3 :   0.4000 0.0000 0.0000  plane waves:   33352
 k-point   4 :   0.2000 0.2000 0.0000  plane waves:   33354
 k-point   5 :   0.4000 0.2000 0.0000  plane waves:   33360
 k-point   6 :   0.0000 0.0000 0.2000  plane waves:   33344
 k-point   7 :   0.2000-0.0000 0.2000  plane waves:   33383
 k-point   8 :   0.4000 0.0000 0.2000  plane waves:   33346
 k-point   9 :   0.2000 0.2000 0.2000  plane waves:   33342
 k-point  10 :   0.4000 0.2000 0.2000  plane waves:   33350
 k-point  11 :   0.0000 0.0000 0.4000  plane waves:   33404
 k-point  12 :   0.2000-0.0000 0.4000  plane waves:   33416
 k-point  13 :   0.4000 0.0000 0.4000  plane waves:   33358
 k-point  14 :   0.2000 0.2000 0.4000  plane waves:   33354
 k-point  15 :   0.4000 0.2000 0.4000  plane waves:   33351

 maximum and minimum number of plane-waves per node :     33416    33342

 maximum number of plane-waves:     33416
 maximum index in each direction: 
   IXMAX=   20   IYMAX=   20   IZMAX=   22
   IXMIN=  -20   IYMIN=  -20   IZMIN=  -22


 serial   3D FFT for wavefunctions
 parallel 3D FFT for charge:
    minimum data exchange during FFTs selected (reduces bandwidth)


 total amount of memory used by VASP MPI-rank0   365744. kBytes
=======================================================================

   base      :      30000. kBytes
   nonl-proj :     182983. kBytes
   fftplans  :       8559. kBytes
   grid      :      35755. kBytes
   one-center:       1119. kBytes
   wavefun   :     107328. kBytes
 
     INWAV:  cpu time      0.0000: real time      0.0000
 Broyden mixing: mesh for mixing (old mesh)
   NGX = 41   NGY = 41   NGZ = 45
  (NGX  =168   NGY  =168   NGZ  =180)
  gives a total of  75645 points

 initial charge density was supplied:
 charge density of overlapping atoms calculated
 number of electron     648.0000000 magnetization 
 keeping initial charge density in first step


--------------------------------------------------------------------------------------------------------


 Maximum index for augmentation-charges          622 (set IRDMAX)


--------------------------------------------------------------------------------------------------------


 First call to EWALD:  gamma=   0.145
 Maximum number of real-space cells 3x 3x 3
 Maximum number of reciprocal cells 3x 3x 3

    FEWALD:  cpu time      0.0025: real time      0.0025


--------------------------------------- Ionic step        1  -------------------------------------------




--------------------------------------- Iteration      1(   1)  ---------------------------------------


    POTLOK:  cpu time      0.6105: real time      0.9533
    SETDIJ:  cpu time      0.0096: real time      0.0100
     EDDAV:  cpu time     94.8982: real time     98.2753
       DOS:  cpu time      0.0027: real time      0.0028
    --------------------------------------------
      LOOP:  cpu time     95.5212: real time     99.2415

 eigenvalue-minimisations  : 12512
 total energy-change (2. order) : 0.4066484E+04  (-0.2701125E+05)
 number of electron     648.0000000 magnetization 
 augmentation part      648.0000000 magnetization 

 Free energy of the ion-electron system (eV)
  ---------------------------------------------------
  alpha Z        PSCENC =      2675.77335074
  Ewald energy   TEWEN  =    -41363.78645763
  -Hartree energ DENC   =    -16920.60810503
  -exchange      EXHF   =         0.00000000
  -V(xc)+E(xc)   XCENC  =       684.19700056
  PAW double counting   =     50859.63822305   -49554.61650470
  entropy T*S    EENTRO =        -0.02405842
  eigenvalues    EBANDS =      1206.71032336
  atomic energy  EATOM  =     56479.20065936
  Solvation  Ediel_sol  =         0.00000000
  ---------------------------------------------------
  free energy    TOTEN  =      4066.48443130 eV

  energy without entropy =     4066.50848973  energy(sigma->0) =     4066.49646051


--------------------------------------------------------------------------------------------------------




--------------------------------------- Iteration      1(   2)  ---------------------------------------


     EDDAV:  cpu time    100.5087: real time    101.6743
       DOS:  cpu time      0.0010: real time      0.0010
    --------------------------------------------
      LOOP:  cpu time    100.5096: real time    101.6753

 eigenvalue-minimisations  : 13920
 total energy-change (2. order) :-0.4045083E+04  (-0.3891630E+04)
 number of electron     648.0000000 magnetization 
 augmentation part      648.0000000 magnetization 

 Free energy of the ion-electron system (eV)
  ---------------------------------------------------
  alpha Z        PSCENC =      2675.77335074
  Ewald energy   TEWEN  =    -41363.78645763
  -Hartree energ DENC   =    -16920.60810503
  -exchange      EXHF   =         0.00000000
  -V(xc)+E(xc)   XCENC  =       684.19700056
  PAW double counting   =     50859.63822305   -49554.61650470
  entropy T*S    EENTRO =        -0.00000000
  eigenvalues    EBANDS =     -2838.39716650
  atomic energy  EATOM  =     56479.20065936
  Solvation  Ediel_sol  =         0.00000000
  ---------------------------------------------------
  free energy    TOTEN  =        21.40099986 eV

  energy without entropy =       21.40099986  energy(sigma->0) =       21.40099986


--------------------------------------------------------------------------------------------------------




--------------------------------------- Iteration      1(   3)  ---------------------------------------


     EDDAV:  cpu time     99.1307: real time    100.0821
       DOS:  cpu time      0.0010: real time      0.0010
    --------------------------------------------
      LOOP:  cpu time     99.1316: real time    100.0831

 eigenvalue-minimisations  : 14336
 total energy-change (2. order) :-0.2796491E+03  (-0.2771752E+03)
 number of electron     648.0000000 magnetization 
 augmentation part      648.0000000 magnetization 

 Free energy of the ion-electron system (eV)
  ---------------------------------------------------
  alpha Z        PSCENC =      2675.77335074
  Ewald energy   TEWEN  =    -41363.78645763
  -Hartree energ DENC   =    -16920.60810503
  -exchange      EXHF   =         0.00000000
  -V(xc)+E(xc)   XCENC  =       684.19700056
  PAW double counting   =     50859.63822305   -49554.61650470
  entropy T*S    EENTRO =        -0.00000000
  eigenvalues    EBANDS =     -3118.04629681
  atomic energy  EATOM  =     56479.20065936
  Solvation  Ediel_sol  =         0.00000000
  ---------------------------------------------------
  free energy    TOTEN  =      -258.24813044 eV

  energy without entropy =     -258.24813044  energy(sigma->0) =     -258.24813044


--------------------------------------------------------------------------------------------------------




--------------------------------------- Iteration      1(   4)  ---------------------------------------


     EDDAV:  cpu time     97.7330: real time     98.2937
       DOS:  cpu time      0.0010: real time      0.0010
    --------------------------------------------
      LOOP:  cpu time     97.7340: real time     98.2947

 eigenvalue-minimisations  : 14176
 total energy-change (2. order) :-0.4843127E+01  (-0.4826425E+01)
 number of electron     648.0000000 magnetization 
 augmentation part      648.0000000 magnetization 

 Free energy of the ion-electron system (eV)
  ---------------------------------------------------
  alpha Z        PSCENC =      2675.77335074
  Ewald energy   TEWEN  =    -41363.78645763
  -Hartree energ DENC   =    -16920.60810503
  -exchange      EXHF   =         0.00000000
  -V(xc)+E(xc)   XCENC  =       684.19700056
  PAW double counting   =     50859.63822305   -49554.61650470
  entropy T*S    EENTRO =        -0.00000000
  eigenvalues    EBANDS =     -3122.88942413
  atomic energy  EATOM  =     56479.20065936
  Solvation  Ediel_sol  =         0.00000000
  ---------------------------------------------------
  free energy    TOTEN  =      -263.09125776 eV

  energy without entropy =     -263.09125776  energy(sigma->0) =     -263.09125776


--------------------------------------------------------------------------------------------------------




--------------------------------------- Iteration      1(   5)  ---------------------------------------


     EDDAV:  cpu time     98.4637: real time     99.0072
       DOS:  cpu time      0.0010: real time      0.0010
    CHARGE:  cpu time      2.5161: real time      2.5568
    MIXING:  cpu time      0.0031: real time      0.0031
    --------------------------------------------
      LOOP:  cpu time    100.9838: real time    101.5681

 eigenvalue-minimisations  : 14336
 total energy-change (2. order) :-0.9866020E-01  (-0.9861617E-01)
 number of electron     648.0000490 magnetization 
 augmentation part      174.3277005 magnetization 

 Broyden mixing:
  rms(total) = 0.44047E+01    rms(broyden)= 0.44046E+01
  rms(prec ) = 0.46698E+01
  weight for this iteration     100.00

 Free energy of the ion-electron system (eV)
  ---------------------------------------------------
  alpha Z        PSCENC =      2675.77335074
  Ewald energy   TEWEN  =    -41363.78645763
  -Hartree energ DENC   =    -16920.60810503
  -exchange      EXHF   =         0.00000000
  -V(xc)+E(xc)   XCENC  =       684.19700056
  PAW double counting   =     50859.63822305   -49554.61650470
  entropy T*S    EENTRO =        -0.00000000
  eigenvalues    EBANDS =     -3122.98808433
  atomic energy  EATOM  =     56479.20065936
  Solvation  Ediel_sol  =         0.00000000
  ---------------------------------------------------
  free energy    TOTEN  =      -263.18991797 eV

  energy without entropy =     -263.18991797  energy(sigma->0) =     -263.18991797


--------------------------------------------------------------------------------------------------------




--------------------------------------- Iteration      1(   6)  ---------------------------------------


    POTLOK:  cpu time      0.1046: real time      0.1055
    SETDIJ:  cpu time      0.0070: real time      0.0071
     EDDAV:  cpu time    108.6969: real time    109.3301
       DOS:  cpu time      0.0010: real time      0.0010
    CHARGE:  cpu time      2.5018: real time      2.5148
    MIXING:  cpu time      0.0035: real time      0.0035
    --------------------------------------------
      LOOP:  cpu time    111.3149: real time    111.9621

 eigenvalue-minimisations  : 16128
 total energy-change (2. order) : 0.1759695E+02  (-0.3858058E+01)
 number of electron     648.0000493 magnetization 
 augmentation part      177.6650794 magnetization 

 Broyden mixing:
  rms(total) = 0.34923E+01    rms(broyden)= 0.34923E+01
  rms(prec ) = 0.35249E+01
  weight for this iteration     100.00

 eigenvalues of (default mixing * dielectric matrix)
  average eigenvalue GAMMA=   2.2133
  2.2133

 Free energy of the ion-electron system (eV)
  ---------------------------------------------------
  alpha Z        PSCENC =      2675.77335074
  Ewald energy   TEWEN  =    -41363.78645763
  -Hartree energ DENC   =    -16786.60843744
  -exchange      EXHF   =         0.00000000
  -V(xc)+E(xc)   XCENC  =       687.16606854
  PAW double counting   =     54974.30862311   -53643.41472648
  entropy T*S    EENTRO =        -0.00000000
  eigenvalues    EBANDS =     -3268.23204347
  atomic energy  EATOM  =     56479.20065936
  Solvation  Ediel_sol  =         0.00000000
  ---------------------------------------------------
  free energy    TOTEN  =      -245.59296327 eV

  energy without entropy =     -245.59296327  energy(sigma->0) =     -245.59296327


--------------------------------------------------------------------------------------------------------




--------------------------------------- Iteration      1(   7)  ---------------------------------------


    POTLOK:  cpu time      0.1058: real time      0.1064
    SETDIJ:  cpu time      0.0068: real time      0.0068
     EDDAV:  cpu time     96.9525: real time     97.4860
       DOS:  cpu time      0.0011: real time      0.0011
    CHARGE:  cpu time      2.5094: real time      2.5225
    MIXING:  cpu time      0.0035: real time      0.0036
    --------------------------------------------
      LOOP:  cpu time     99.5791: real time    100.1262

 eigenvalue-minimisations  : 14048
 total energy-change (2. order) : 0.1644349E+00  (-0.1574588E+01)
 number of electron     648.0000494 magnetization 
 augmentation part      178.8195216 magnetization 

 Broyden mixing:
  rms(total) = 0.12958E+01    rms(broyden)= 0.12958E+01
  rms(prec ) = 0.13172E+01
  weight for this iteration     100.00

 eigenvalues of (default mixing * dielectric matrix)
  average eigenvalue GAMMA=   1.7995
  1.1989  2.4000

 Free energy of the ion-electron system (eV)
  ---------------------------------------------------
  alpha Z        PSCENC =      2675.77335074
  Ewald energy   TEWEN  =    -41363.78645763
  -Hartree energ DENC   =    -16782.07638299
  -exchange      EXHF   =         0.00000000
  -V(xc)+E(xc)   XCENC  =       691.05420579
  PAW double counting   =     61192.18135096   -59859.61825075
  entropy T*S    EENTRO =        -0.00000000
  eigenvalues    EBANDS =     -3278.15700390
  atomic energy  EATOM  =     56479.20065936
  Solvation  Ediel_sol  =         0.00000000
  ---------------------------------------------------
  free energy    TOTEN  =      -245.42852840 eV

  energy without entropy =     -245.42852840  energy(sigma->0) =     -245.42852840


--------------------------------------------------------------------------------------------------------




--------------------------------------- Iteration      1(   8)  ---------------------------------------


    POTLOK:  cpu time      0.1021: real time      0.1028
    SETDIJ:  cpu time      0.0069: real time      0.0069
     EDDAV:  cpu time    103.7907: real time    104.3770
       DOS:  cpu time      0.0013: real time      0.0014
    CHARGE:  cpu time      4.0809: real time      4.1202
    MIXING:  cpu time      0.0043: real time      0.0043
    --------------------------------------------
      LOOP:  cpu time    107.9862: real time    108.6127

 eigenvalue-minimisations  : 14464
 total energy-change (2. order) : 0.2665317E+00  (-0.2687081E+00)
 number of electron     648.0000493 magnetization 
 augmentation part      177.9583478 magnetization 

 Broyden mixing:
  rms(total) = 0.26083E+00    rms(broyden)= 0.26082E+00
  rms(prec ) = 0.26911E+00
  weight for this iteration     100.00

 eigenvalues of (default mixing * dielectric matrix)
  average eigenvalue GAMMA=   1.6479
  2.2660  1.3388  1.3388

 Free energy of the ion-electron system (eV)
  ---------------------------------------------------
  alpha Z        PSCENC =      2675.77335074
  Ewald energy   TEWEN  =    -41363.78645763
  -Hartree energ DENC   =    -16806.75619823
  -exchange      EXHF   =         0.00000000
  -V(xc)+E(xc)   XCENC  =       691.20492378
  PAW double counting   =     64342.32431804   -63015.07437384
  entropy T*S    EENTRO =        -0.00000000
  eigenvalues    EBANDS =     -3248.04821891
  atomic energy  EATOM  =     56479.20065936
  Solvation  Ediel_sol  =         0.00000000
  ---------------------------------------------------
  free energy    TOTEN  =      -245.16199668 eV

  energy without entropy =     -245.16199668  energy(sigma->0) =     -245.16199668


--------------------------------------------------------------------------------------------------------




--------------------------------------- Iteration      1(   9)  ---------------------------------------


    POTLOK:  cpu time      0.1492: real time      0.1503
    SETDIJ:  cpu time      0.0079: real time      0.0079
     EDDAV:  cpu time    127.0070: real time    127.8210
       DOS:  cpu time      0.0011: real time      0.0011
    CHARGE:  cpu time      2.5097: real time      2.5230
    MIXING:  cpu time      0.0035: real time      0.0035
    --------------------------------------------
      LOOP:  cpu time    129.6783: real time    130.5068

 eigenvalue-minimisations  : 14496
 total energy-change (2. order) : 0.1271283E-01  (-0.3680177E-01)
 number of electron     648.0000493 magnetization 
 augmentation part      178.2563167 magnetization 

 Broyden mixing:
  rms(total) = 0.85702E-01    rms(broyden)= 0.85699E-01
  rms(prec ) = 0.91082E-01
  weight for this iteration     100.00

 eigenvalues of (default mixing * dielectric matrix)
  average eigenvalue GAMMA=   1.4847
  2.3077  0.9587  1.3363  1.3363

 Free energy of the ion-electron system (eV)
  ---------------------------------------------------
  alpha Z        PSCENC =      2675.77335074
  Ewald energy   TEWEN  =    -41363.78645763
  -Hartree energ DENC   =    -16784.98673569
  -exchange      EXHF   =         0.00000000
  -V(xc)+E(xc)   XCENC  =       690.97888184
  PAW double counting   =     64610.90007264   -63279.63471039
  entropy T*S    EENTRO =        -0.00000000
  eigenvalues    EBANDS =     -3273.59434472
  atomic energy  EATOM  =     56479.20065936
  Solvation  Ediel_sol  =         0.00000000
  ---------------------------------------------------
  free energy    TOTEN  =      -245.14928384 eV

  energy without entropy =     -245.14928384  energy(sigma->0) =     -245.14928384


--------------------------------------------------------------------------------------------------------




--------------------------------------- Iteration      1(  10)  ---------------------------------------


    POTLOK:  cpu time      0.1065: real time      0.1071
    SETDIJ:  cpu time      0.0067: real time      0.0067
     EDDAV:  cpu time     99.8368: real time    100.4075
       DOS:  cpu time      0.0011: real time      0.0011
    CHARGE:  cpu time      2.7936: real time      2.8111
    MIXING:  cpu time      0.0043: real time      0.0043
    --------------------------------------------
      LOOP:  cpu time    102.7491: real time    103.3379

 eigenvalue-minimisations  : 14464
 total energy-change (2. order) : 0.3697880E-02  (-0.2149812E-02)
 number of electron     648.0000493 magnetization 
 augmentation part      178.1867890 magnetization 

 Broyden mixing:
  rms(total) = 0.36487E-01    rms(broyden)= 0.36486E-01
  rms(prec ) = 0.38078E-01
  weight for this iteration     100.00

 eigenvalues of (default mixing * dielectric matrix)
  average eigenvalue GAMMA=   1.2129
  2.2926  0.9165  1.3482  1.3482  0.1588

 Free energy of the ion-electron system (eV)
  ---------------------------------------------------
  alpha Z        PSCENC =      2675.77335074
  Ewald energy   TEWEN  =    -41363.78645763
  -Hartree energ DENC   =    -16789.61147396
  -exchange      EXHF   =         0.00000000
  -V(xc)+E(xc)   XCENC  =       691.05924690
  PAW double counting   =     64758.52509877   -63427.77914122
  entropy T*S    EENTRO =        -0.00000000
  eigenvalues    EBANDS =     -3268.52686893
  atomic energy  EATOM  =     56479.20065936
  Solvation  Ediel_sol  =         0.00000000
  ---------------------------------------------------
  free energy    TOTEN  =      -245.14558596 eV

  energy without entropy =     -245.14558596  energy(sigma->0) =     -245.14558596


--------------------------------------------------------------------------------------------------------




--------------------------------------- Iteration      1(  11)  ---------------------------------------


    POTLOK:  cpu time      0.1174: real time      0.1182
    SETDIJ:  cpu time      0.0070: real time      0.0070
     EDDAV:  cpu time    101.6909: real time    102.4586
       DOS:  cpu time      0.0011: real time      0.0011
    CHARGE:  cpu time      2.5105: real time      2.5237
    MIXING:  cpu time      0.0034: real time      0.0135
    --------------------------------------------
      LOOP:  cpu time    104.3302: real time    105.1221

 eigenvalue-minimisations  : 14560
 total energy-change (2. order) :-0.7503533E-03  (-0.2967093E-03)
 number of electron     648.0000493 magnetization 
 augmentation part      178.1666571 magnetization 

 Broyden mixing:
  rms(total) = 0.24757E-01    rms(broyden)= 0.24757E-01
  rms(prec ) = 0.26088E-01
  weight for this iteration     100.00

 eigenvalues of (default mixing * dielectric matrix)
  average eigenvalue GAMMA=   1.5689
  2.2386  2.0005  2.0005  0.9207  1.1265  1.1265

 Free energy of the ion-electron system (eV)
  ---------------------------------------------------
  alpha Z        PSCENC =      2675.77335074
  Ewald energy   TEWEN  =    -41363.78645763
  -Hartree energ DENC   =    -16790.80329315
  -exchange      EXHF   =         0.00000000
  -V(xc)+E(xc)   XCENC  =       691.08835100
  PAW double counting   =     64697.06932898   -63366.31248151
  entropy T*S    EENTRO =        -0.00000000
  eigenvalues    EBANDS =     -3267.37579411
  atomic energy  EATOM  =     56479.20065936
  Solvation  Ediel_sol  =         0.00000000
  ---------------------------------------------------
  free energy    TOTEN  =      -245.14633631 eV

  energy without entropy =     -245.14633631  energy(sigma->0) =     -245.14633631


--------------------------------------------------------------------------------------------------------




--------------------------------------- Iteration      1(  12)  ---------------------------------------


    POTLOK:  cpu time      0.0863: real time      0.0936
    SETDIJ:  cpu time      0.0073: real time      0.0074
     EDDAV:  cpu time     93.7659: real time     94.2884
       DOS:  cpu time      0.0010: real time      0.0010
    CHARGE:  cpu time      2.5102: real time      2.5234
    MIXING:  cpu time      0.0035: real time      0.0035
    --------------------------------------------
      LOOP:  cpu time     96.3742: real time     96.9174

 eigenvalue-minimisations  : 13440
 total energy-change (2. order) :-0.1265850E-02  (-0.1191813E-03)
 number of electron     648.0000493 magnetization 
 augmentation part      178.1577796 magnetization 

 Broyden mixing:
  rms(total) = 0.13164E-01    rms(broyden)= 0.13164E-01
  rms(prec ) = 0.13918E-01
  weight for this iteration     100.00

 eigenvalues of (default mixing * dielectric matrix)
  average eigenvalue GAMMA=   1.5556
  2.6515  2.2822  1.4462  1.4462  1.0654  1.0654  0.9322

 Free energy of the ion-electron system (eV)
  ---------------------------------------------------
  alpha Z        PSCENC =      2675.77335074
  Ewald energy   TEWEN  =    -41363.78645763
  -Hartree energ DENC   =    -16793.32834996
  -exchange      EXHF   =         0.00000000
  -V(xc)+E(xc)   XCENC  =       691.19463633
  PAW double counting   =     64608.16489378   -63277.34783827
  entropy T*S    EENTRO =        -0.00000000
  eigenvalues    EBANDS =     -3265.01849652
  atomic energy  EATOM  =     56479.20065936
  Solvation  Ediel_sol  =         0.00000000
  ---------------------------------------------------
  free energy    TOTEN  =      -245.14760217 eV

  energy without entropy =     -245.14760217  energy(sigma->0) =     -245.14760217


--------------------------------------------------------------------------------------------------------




--------------------------------------- Iteration      1(  13)  ---------------------------------------


    POTLOK:  cpu time      0.1097: real time      0.1105
    SETDIJ:  cpu time      0.0070: real time      0.0070
     EDDAV:  cpu time     99.4551: real time    100.0011
       DOS:  cpu time      0.0011: real time      0.0011
    CHARGE:  cpu time      2.4972: real time      2.5101
    MIXING:  cpu time      0.0037: real time      0.0037
    --------------------------------------------
      LOOP:  cpu time    102.0737: real time    102.6335

 eigenvalue-minimisations  : 14496
 total energy-change (2. order) :-0.1026766E-03  (-0.3937304E-04)
 number of electron     648.0000493 magnetization 
 augmentation part      178.1528484 magnetization 

 Broyden mixing:
  rms(total) = 0.24803E-02    rms(broyden)= 0.24802E-02
  rms(prec ) = 0.25562E-02
  weight for this iteration     100.00

 eigenvalues of (default mixing * dielectric matrix)
  average eigenvalue GAMMA=   1.5767
  2.6552  2.1916  2.1916  1.2684  1.2684  1.0806  1.0806  0.8772

 Free energy of the ion-electron system (eV)
  ---------------------------------------------------
  alpha Z        PSCENC =      2675.77335074
  Ewald energy   TEWEN  =    -41363.78645763
  -Hartree energ DENC   =    -16793.55601156
  -exchange      EXHF   =         0.00000000
  -V(xc)+E(xc)   XCENC  =       691.20009734
  PAW double counting   =     64642.79024229   -63311.93179412
  entropy T*S    EENTRO =        -0.00000000
  eigenvalues    EBANDS =     -3264.83779126
  atomic energy  EATOM  =     56479.20065936
  Solvation  Ediel_sol  =         0.00000000
  ---------------------------------------------------
  free energy    TOTEN  =      -245.14770484 eV

  energy without entropy =     -245.14770484  energy(sigma->0) =     -245.14770484


--------------------------------------------------------------------------------------------------------




--------------------------------------- Iteration      1(  14)  ---------------------------------------


    POTLOK:  cpu time      0.0858: real time      0.0865
    SETDIJ:  cpu time      0.0068: real time      0.0069
     EDDAV:  cpu time     97.4337: real time     98.0202
       DOS:  cpu time      0.0010: real time      0.0011
    CHARGE:  cpu time      2.5083: real time      2.5225
    MIXING:  cpu time      0.0034: real time      0.0034
    --------------------------------------------
      LOOP:  cpu time    100.0390: real time    100.6406

 eigenvalue-minimisations  : 14144
 total energy-change (2. order) :-0.2060700E-04  (-0.3287648E-05)
 number of electron     648.0000493 magnetization 
 augmentation part      178.1520673 magnetization 

 Broyden mixing:
  rms(total) = 0.68875E-03    rms(broyden)= 0.68872E-03
  rms(prec ) = 0.74728E-03
  weight for this iteration     100.00

 eigenvalues of (default mixing * dielectric matrix)
  average eigenvalue GAMMA=   1.6649
  2.7713  2.7713  2.7547  1.3174  1.3174  1.0625  1.0625  1.0644  0.8626

 Free energy of the ion-electron system (eV)
  ---------------------------------------------------
  alpha Z        PSCENC =      2675.77335074
  Ewald energy   TEWEN  =    -41363.78645763
  -Hartree energ DENC   =    -16793.73442458
  -exchange      EXHF   =         0.00000000
  -V(xc)+E(xc)   XCENC  =       691.20807911
  PAW double counting   =     64638.68807074   -63307.84920931
  entropy T*S    EENTRO =        -0.00000000
  eigenvalues    EBANDS =     -3264.64779388
  atomic energy  EATOM  =     56479.20065936
  Solvation  Ediel_sol  =         0.00000000
  ---------------------------------------------------
  free energy    TOTEN  =      -245.14772545 eV

  energy without entropy =     -245.14772545  energy(sigma->0) =     -245.14772545


--------------------------------------------------------------------------------------------------------




--------------------------------------- Iteration      1(  15)  ---------------------------------------


    POTLOK:  cpu time      0.1083: real time      0.1092
    SETDIJ:  cpu time      0.0073: real time      0.0073
     EDDAV:  cpu time     85.2148: real time     85.7356
       DOS:  cpu time      0.0011: real time      0.0011
    CHARGE:  cpu time      2.5054: real time      2.5196
    MIXING:  cpu time      0.0036: real time      0.0036
    --------------------------------------------
      LOOP:  cpu time     87.8405: real time     88.3764

 eigenvalue-minimisations  : 11808
 total energy-change (2. order) :-0.3347508E-05  (-0.5964150E-06)
 number of electron     648.0000493 magnetization 
 augmentation part      178.1521301 magnetization 

 Broyden mixing:
  rms(total) = 0.81855E-03    rms(broyden)= 0.81855E-03
  rms(prec ) = 0.82072E-03
  weight for this iteration     100.00

 eigenvalues of (default mixing * dielectric matrix)
  average eigenvalue GAMMA=   1.5990
  3.1939  2.5025  2.3797  1.3473  1.3473  1.0412  1.0412  0.8890  1.1241  1.1241

 Free energy of the ion-electron system (eV)
  ---------------------------------------------------
  alpha Z        PSCENC =      2675.77335074
  Ewald energy   TEWEN  =    -41363.78645763
  -Hartree energ DENC   =    -16793.78082697
  -exchange      EXHF   =         0.00000000
  -V(xc)+E(xc)   XCENC  =       691.20983139
  PAW double counting   =     64638.16956183   -63307.34269914
  entropy T*S    EENTRO =        -0.00000000
  eigenvalues    EBANDS =     -3264.59114838
  atomic energy  EATOM  =     56479.20065936
  Solvation  Ediel_sol  =         0.00000000
  ---------------------------------------------------
  free energy    TOTEN  =      -245.14772880 eV

  energy without entropy =     -245.14772880  energy(sigma->0) =     -245.14772880


--------------------------------------------------------------------------------------------------------




--------------------------------------- Iteration      1(  16)  ---------------------------------------


    POTLOK:  cpu time      0.0868: real time      0.0876
    SETDIJ:  cpu time      0.0067: real time      0.0068
     EDDAV:  cpu time     75.5646: real time     76.2900
       DOS:  cpu time      0.0010: real time      0.0010
    --------------------------------------------
      LOOP:  cpu time     75.6592: real time     76.3854

 eigenvalue-minimisations  :  9792
 total energy-change (2. order) :-0.3236637E-06  (-0.1409451E-07)
 number of electron     648.0000493 magnetization 
 augmentation part      178.1521301 magnetization 

 Free energy of the ion-electron system (eV)
  ---------------------------------------------------
  alpha Z        PSCENC =      2675.77335074
  Ewald energy   TEWEN  =    -41363.78645763
  -Hartree energ DENC   =    -16793.80160338
  -exchange      EXHF   =         0.00000000
  -V(xc)+E(xc)   XCENC  =       691.21026931
  PAW double counting   =     64636.38950236   -63305.56006014
  entropy T*S    EENTRO =        -0.00000000
  eigenvalues    EBANDS =     -3264.57338975
  atomic energy  EATOM  =     56479.20065936
  Solvation  Ediel_sol  =         0.00000000
  ---------------------------------------------------
  free energy    TOTEN  =      -245.14772912 eV

  energy without entropy =     -245.14772912  energy(sigma->0) =     -245.14772912


--------------------------------------------------------------------------------------------------------




 average (electrostatic) potential at core
  the test charge radii are     1.0698  0.9698
  (the norm of the test charge is              1.0000)
       1 -39.3580       2 -39.3580       3 -39.3580       4 -39.3580       5 -39.3580
       6 -39.3580       7 -39.3580       8 -39.3580       9 -39.3580      10 -39.3580
      11 -39.3580      12 -39.3580      13 -39.3580      14 -39.3580      15 -39.3580
      16 -39.3580      17 -39.3580      18 -39.3580      19 -39.3580      20 -39.3580
      21 -39.3580      22 -39.3580      23 -39.3580      24 -39.3580      25 -39.3580
      26 -39.3580      27 -39.3580      28 -39.3580      29 -39.3580      30 -39.3580
      31 -39.3580      32 -39.3580      33 -39.3580      34 -39.3580      35 -39.3580
      36 -39.3580      37 -89.4723      38 -89.4723      39 -89.4723      40 -89.4723
      41 -89.4723      42 -89.4723      43 -89.4723      44 -89.4723      45 -89.4723
      46 -89.4723      47 -89.4723      48 -89.4723      49 -89.4723      50 -89.4723
      51 -89.4723      52 -89.4723      53 -89.4723      54 -89.4723      55 -89.4723
      56 -89.4723      57 -89.4723      58 -89.4723      59 -89.4723      60 -89.4723
      61 -89.4723      62 -89.4723      63 -89.4723      64 -89.4723      65 -89.4723
      66 -89.4723      67 -89.4723      68 -89.4723      69 -89.4723      70 -89.4723
      71 -89.4723      72 -89.4723
 
 
 
 E-fermi :   1.2438     XC(G=0):  -9.2400     alpha+bet : -6.8947

 Fermi energy:         1.2438320304

 k-point     1 :       0.0000    0.0000    0.0000
  band No.  band energies     occupation 
      1     -11.2443      2.00000
      2     -11.0311      2.00000
      3     -11.0311      2.00000
      4     -10.9532      2.00000
      5     -10.9532      2.00000
      6     -10.9532      2.00000
      7     -10.9532      2.00000
      8     -10.9532      2.00000
      9     -10.9532      2.00000
     10     -10.8274      2.00000
     11     -10.8274      2.00000
     12     -10.8274      2.00000
     13     -10.8274      2.00000
     14     -10.8274      2.00000
     15     -10.8274      2.00000
     16     -10.8274      2.00000
     17     -10.8274      2.00000
     18     -10.8274      2.00000
     19     -10.8274      2.00000
     20     -10.8274      2.00000
     21     -10.8274      2.00000
     22     -10.8248      2.00000
     23     -10.7388      2.00000
     24     -10.7388      2.00000
     25     -10.7388      2.00000
     26     -10.7388      2.00000
     27     -10.7282      2.00000
     28     -10.7282      2.00000
     29     -10.7282      2.00000
     30     -10.7282      2.00000
     31     -10.7192      2.00000
     32     -10.7192      2.00000
     33     -10.7192      2.00000
     34     -10.7192      2.00000
     35     -10.7192      2.00000
     36     -10.7192      2.00000
     37      -6.6324      2.00000
     38      -6.6254      2.00000
     39      -6.6254      2.00000
     40      -6.5923      2.00000
     41      -6.5923      2.00000
     42      -6.5923      2.00000
     43      -6.5923      2.00000
     44      -6.5652      2.00000
     45      -6.5652      2.00000
     46      -6.5514      2.00000
     47      -6.5514      2.00000
     48      -6.5514      2.00000
     49      -6.5514      2.00000
     50      -6.5514      2.00000
     51      -6.5514      2.00000
     52      -6.5460      2.00000
     53      -6.5460      2.00000
     54      -6.5355      2.00000
     55      -6.5355      2.00000
     56      -6.5355      2.00000
     57      -6.5355      2.00000
     58      -6.5355      2.00000
     59      -6.5355      2.00000
     60      -6.5097      2.00000
     61      -6.5097      2.00000
     62      -6.5097      2.00000
     63      -6.5097      2.00000
     64      -6.5097      2.00000
     65      -6.5097      2.00000
     66      -6.5097      2.00000
     67      -6.5097      2.00000
     68      -6.5097      2.00000
     69      -6.5097      2.00000
     70      -6.5097      2.00000
     71      -6.5097      2.00000
     72      -6.4625      2.00000
     73      -6.4625      2.00000
     74      -6.4625      2.00000
     75      -6.4625      2.00000
     76      -6.4625      2.00000
     77      -6.4625      2.00000
     78      -6.4625      2.00000
     79      -6.4625      2.00000
     80      -6.4625      2.00000
     81      -6.4625      2.00000
     82      -6.4625      2.00000
     83      -6.4625      2.00000
     84      -6.4523      2.00000
     85      -6.4523      2.00000
     86      -6.4523      2.00000
     87      -6.4523      2.00000
     88      -6.4362      2.00000
     89      -6.4362      2.00000
     90      -6.4362      2.00000
     91      -6.4362      2.00000
     92      -6.4178      2.00000
     93      -6.4178      2.00000
     94      -6.4178      2.00000
     95      -6.4178      2.00000
     96      -6.4178      2.00000
     97      -6.4178      2.00000
     98      -6.4155      2.00000
     99      -6.4155      2.00000
    100      -6.3979      2.00000
    101      -6.3979      2.00000
    102      -6.3979      2.00000
    103      -6.3979      2.00000
    104      -6.3920      2.00000
    105      -6.3920      2.00000
    106      -6.3920      2.00000
    107      -6.3920      2.00000
    108      -6.3920      2.00000
    109      -6.3920      2.00000
    110      -6.3373      2.00000
    111      -6.3373      2.00000
    112      -6.3264      2.00000
    113      -6.3264      2.00000
    114      -6.3264      2.00000
    115      -6.3264      2.00000
    116      -6.3264      2.00000
    117      -6.3264      2.00000
    118      -6.3002      2.00000
    119      -6.3002      2.00000
    120      -6.3002      2.00000
    121      -6.3002      2.00000
    122      -6.3002      2.00000
    123      -6.3002      2.00000
    124      -6.3002      2.00000
    125      -6.3002      2.00000
    126      -6.3002      2.00000
    127      -6.3002      2.00000
    128      -6.3002      2.00000
    129      -6.3002      2.00000
    130      -6.2789      2.00000
    131      -6.2789      2.00000
    132      -6.2789      2.00000
    133      -6.2789      2.00000
    134      -6.2789      2.00000
    135      -6.2789      2.00000
    136      -6.2435      2.00000
    137      -6.2435      2.00000
    138      -6.2435      2.00000
    139      -6.2435      2.00000
    140      -6.2322      2.00000
    141      -6.2322      2.00000
    142      -6.2254      2.00000
    143      -6.2254      2.00000
    144      -6.2254      2.00000
    145      -6.2254      2.00000
    146      -6.2182      2.00000
    147      -6.2182      2.00000
    148      -6.2170      2.00000
    149      -6.2170      2.00000
    150      -6.2170      2.00000
    151      -6.2170      2.00000
    152      -6.1983      2.00000
    153      -6.1983      2.00000
    154      -6.1983      2.00000
    155      -6.1983      2.00000
    156      -6.1983      2.00000
    157      -6.1983      2.00000
    158      -6.1833      2.00000
    159      -6.1833      2.00000
    160      -6.1833      2.00000
    161      -6.1833      2.00000
    162      -6.1728      2.00000
    163      -6.1728      2.00000
    164      -6.1728      2.00000
    165      -6.1728      2.00000
    166      -6.1728      2.00000
    167      -6.1728      2.00000
    168      -6.1651      2.00000
    169      -6.1651      2.00000
    170      -6.1651      2.00000
    171      -6.1651      2.00000
    172      -6.1651      2.00000
    173      -6.1651      2.00000
    174      -6.1651      2.00000
    175      -6.1651      2.00000
    176      -6.1651      2.00000
    177      -6.1651      2.00000
    178      -6.1651      2.00000
    179      -6.1651      2.00000
    180      -6.1606      2.00000
    181      -6.1606      2.00000
    182      -6.1445      2.00000
[...]
    FORHAR:  cpu time      0.0388: real time      0.0390
    MIXING:  cpu time      0.0030: real time      0.0030
    OFIELD:  cpu time      0.0000: real time      0.0000

  FORCE on cell =-STRESS in cart. coord.  units (eV):
  Direction    XX          YY          ZZ          XY          YZ          ZX
  --------------------------------------------------------------------------------------
  Alpha Z  2675.77335  2675.77335  2675.77335
  Ewald  -13950.52709-13950.52709-13462.98328    -0.00000    -0.00000    -0.00000
  Hartree  5469.37864  5469.37864  5855.03416    -0.00000     0.00000    -0.00000
  E(xc)   -3006.83166 -3006.83172 -3006.54263     0.00000    -0.00000     0.00000
  Local     427.22142   427.22413  -450.24781     0.00000    -0.00000    -0.00000
  n-local  -506.47540  -499.94850  -504.60634     3.47385     0.08466    -0.26037
  augment   534.44280   534.44081   534.88695     0.00000     0.00000    -0.00000
  Kinetic  8325.94268  8338.53474  8337.79714     6.73145     0.14300    -0.43392
  Fock        0.00000     0.00000     0.00000     0.00000     0.00000     0.00000
  -------------------------------------------------------------------------------------
  Total     -21.51546   -21.51546   -20.88846    -0.00000     0.00000     0.00000
  in kB     -18.76821   -18.76821   -18.22127    -0.00000     0.00000     0.00000
  external pressure =      -18.59 kB  Pullay stress =        0.00 kB


 VOLUME and BASIS-vectors are now :
 -----------------------------------------------------------------------------
  energy-cutoff  :      400.00
  volume of cell :     1836.70
      direct lattice vectors                 reciprocal lattice vectors
     6.253257149-10.830959095  0.000000000     0.079958330 -0.046163963  0.000000000
     6.253257149 10.830959095  0.000000000     0.079958330  0.046163963  0.000000000
     0.000000000  0.000000000 13.559234820     0.000000000  0.000000000  0.073750474

  length of vectors
    12.506514299 12.506514299 13.559234820     0.092327927  0.092327927  0.073750474


 FORCES acting on ions
    electron-ion (+dipol)            ewald-force                    non-local-force                 convergence-correction
 -----------------------------------------------------------------------------------------------
   0.308E-07 -.397E-06 -.194E+01   -.687E-10 0.921E-11 0.194E+01   0.326E-18 0.777E-18 -.472E-02   0.240E-11 -.608E-08 0.494E-04
   0.308E-07 -.397E-06 -.194E+01   -.167E-12 0.472E-10 0.194E+01   0.778E-18 0.230E-18 -.472E-02   -.228E-11 -.608E-08 0.494E-04
   0.308E-07 0.397E-06 -.194E+01   -.163E-12 0.287E-10 0.194E+01   0.119E-17 -.995E-18 -.472E-02   -.136E-11 0.608E-08 0.494E-04
   0.308E-07 -.397E-06 -.194E+01   0.349E-10 0.294E-10 0.194E+01   0.154E-17 0.617E-18 -.472E-02   -.290E-11 -.608E-08 0.494E-04
   0.308E-07 0.397E-06 -.194E+01   0.362E-10 0.542E-11 0.194E+01   0.333E-17 0.314E-18 -.472E-02   -.193E-11 0.608E-08 0.494E-04
   0.308E-07 -.397E-06 -.194E+01   -.289E-10 -.158E-10 0.194E+01   -.859E-18 0.150E-17 -.472E-02   0.204E-11 -.608E-08 0.494E-04
   0.308E-07 0.397E-06 -.194E+01   -.324E-10 -.298E-10 0.194E+01   -.357E-17 -.530E-17 -.472E-02   0.234E-11 0.608E-08 0.494E-04
   0.308E-07 -.397E-06 -.194E+01   0.284E-10 -.350E-11 0.194E+01   -.102E-17 -.118E-17 -.472E-02   0.113E-11 -.608E-08 0.494E-04
   0.308E-07 0.397E-06 -.194E+01   0.349E-10 -.383E-10 0.194E+01   -.404E-17 -.116E-17 -.472E-02   -.115E-11 0.608E-08 0.494E-04
   0.308E-07 -.397E-06 -.194E+01   -.284E-10 -.367E-11 0.194E+01   0.652E-18 0.230E-17 -.472E-02   0.137E-11 -.608E-08 0.494E-04
   0.308E-07 0.397E-06 -.194E+01   -.327E-10 -.311E-10 0.194E+01   0.366E-17 0.779E-18 -.472E-02   0.265E-11 0.608E-08 0.494E-04
   0.308E-07 -.397E-06 -.194E+01   0.168E-11 0.486E-11 0.194E+01   0.473E-17 0.197E-17 -.472E-02   0.518E-12 -.608E-08 0.494E-04
   0.308E-07 0.397E-06 -.194E+01   -.190E-11 0.197E-11 0.194E+01   -.209E-17 -.912E-18 -.472E-02   -.133E-11 0.608E-08 0.494E-04
   0.308E-07 0.397E-06 -.194E+01   -.130E-10 -.392E-10 0.194E+01   0.781E-17 0.119E-18 -.472E-02   0.244E-11 0.609E-08 0.494E-04
   0.308E-07 -.397E-06 -.194E+01   -.142E-12 -.287E-10 0.194E+01   0.113E-17 0.538E-18 -.472E-02   0.195E-11 -.608E-08 0.494E-04
   0.308E-07 -.397E-06 -.194E+01   0.345E-10 -.101E-10 0.194E+01   0.528E-17 0.200E-17 -.472E-02   0.657E-12 -.608E-08 0.494E-04
   0.308E-07 -.397E-06 -.194E+01   0.159E-11 0.129E-10 0.194E+01   0.263E-18 -.300E-17 -.472E-02   0.756E-12 -.608E-08 0.494E-04
   0.308E-07 0.397E-06 -.194E+01   0.367E-10 -.307E-10 0.194E+01   0.442E-17 -.178E-17 -.472E-02   -.144E-11 0.608E-08 0.494E-04
   0.308E-07 -.397E-06 -.194E+01   0.769E-11 0.400E-10 0.194E+01   0.299E-17 -.730E-18 -.472E-02   -.248E-11 -.608E-08 0.494E-04
   0.308E-07 0.397E-06 -.194E+01   -.630E-10 -.739E-11 0.194E+01   -.603E-18 -.357E-17 -.472E-02   0.318E-11 0.608E-08 0.494E-04
   0.308E-07 0.397E-06 -.194E+01   0.609E-10 0.448E-11 0.194E+01   0.320E-17 -.118E-17 -.472E-02   -.232E-11 0.608E-08 0.494E-04
   0.308E-07 -.397E-06 -.194E+01   0.532E-10 0.608E-11 0.194E+01   0.292E-17 0.158E-17 -.472E-02   -.289E-11 -.609E-08 0.494E-04
   0.308E-07 -.397E-06 -.194E+01   -.533E-10 0.325E-11 0.194E+01   0.191E-17 0.716E-18 -.472E-02   0.234E-11 -.608E-08 0.494E-04
   0.308E-07 0.397E-06 -.194E+01   -.685E-10 -.428E-11 0.194E+01   0.602E-17 0.770E-18 -.472E-02   0.333E-11 0.608E-08 0.494E-04
   0.308E-07 -.397E-06 -.194E+01   0.320E-10 0.549E-11 0.194E+01   0.239E-17 0.329E-17 -.472E-02   -.329E-11 -.608E-08 0.494E-04
   0.308E-07 0.397E-06 -.194E+01   0.622E-14 0.288E-10 0.194E+01   -.246E-18 -.202E-17 -.472E-02   -.135E-11 0.608E-08 0.494E-04
   0.308E-07 -.397E-06 -.194E+01   -.400E-13 -.287E-10 0.194E+01   0.549E-19 0.165E-17 -.472E-02   0.231E-11 -.608E-08 0.494E-04
   0.308E-07 0.397E-06 -.194E+01   -.297E-10 0.204E-10 0.194E+01   -.254E-17 -.977E-18 -.472E-02   -.615E-12 0.608E-08 0.494E-04
   0.308E-07 0.397E-06 -.194E+01   0.593E-10 -.959E-11 0.194E+01   0.565E-18 -.323E-18 -.472E-02   -.201E-11 0.608E-08 0.494E-04
   0.308E-07 -.397E-06 -.194E+01   0.537E-10 0.376E-11 0.194E+01   0.223E-17 0.184E-17 -.472E-02   -.271E-11 -.609E-08 0.494E-04
   0.308E-07 -.397E-06 -.194E+01   -.307E-10 0.126E-10 0.194E+01   -.467E-18 -.161E-17 -.472E-02   0.153E-11 -.608E-08 0.494E-04
   0.308E-07 0.397E-06 -.194E+01   -.236E-10 0.151E-10 0.194E+01   0.557E-17 -.328E-17 -.472E-02   -.674E-12 0.608E-08 0.494E-04
   0.308E-07 0.397E-06 -.194E+01   0.628E-11 -.252E-10 0.194E+01   -.114E-17 -.758E-18 -.472E-02   0.257E-11 0.609E-08 0.494E-04
   0.308E-07 0.397E-06 -.194E+01   0.238E-10 0.142E-10 0.194E+01   -.499E-18 -.736E-18 -.472E-02   -.212E-11 0.608E-08 0.494E-04
   0.308E-07 -.397E-06 -.194E+01   -.315E-10 0.126E-10 0.194E+01   0.492E-17 0.298E-17 -.472E-02   0.781E-12 -.608E-08 0.494E-04
   0.308E-07 0.397E-06 -.194E+01   0.711E-14 0.533E-12 0.194E+01   0.528E-17 -.476E-18 -.472E-02   -.117E-11 0.608E-08 0.494E-04
   -.133E-06 -.211E-06 0.187E+01   0.160E-13 -.129E-10 -.194E+01   0.166E-16 0.121E-16 0.737E-01   0.952E-12 0.148E-08 0.191E-04
   -.133E-06 0.211E-06 0.187E+01   0.955E-14 -.108E-10 -.194E+01   -.606E-17 0.328E-17 0.737E-01   0.137E-11 -.148E-08 0.191E-04
   -.133E-06 -.211E-06 0.187E+01   0.272E-10 -.378E-12 -.194E+01   0.169E-16 0.425E-17 0.737E-01   0.346E-12 0.148E-08 0.191E-04
   -.133E-06 0.211E-06 0.187E+01   0.439E-12 -.111E-10 -.194E+01   0.416E-17 -.531E-17 0.737E-01   0.119E-11 -.148E-08 0.191E-04
   -.133E-06 0.211E-06 0.187E+01   -.552E-11 -.917E-11 -.194E+01   -.266E-17 0.289E-17 0.737E-01   -.597E-12 -.148E-08 0.191E-04
   -.133E-06 -.211E-06 0.187E+01   0.276E-10 -.759E-12 -.194E+01   -.136E-16 0.341E-17 0.737E-01   0.503E-12 0.148E-08 0.191E-04
   -.133E-06 0.211E-06 0.187E+01   -.551E-11 -.919E-11 -.194E+01   0.648E-17 0.129E-18 0.737E-01   -.544E-12 -.148E-08 0.191E-04
   -.133E-06 -.211E-06 0.187E+01   0.174E-10 -.305E-11 -.194E+01   0.956E-17 0.318E-17 0.737E-01   -.147E-11 0.148E-08 0.191E-04
   -.133E-06 0.211E-06 0.187E+01   0.198E-10 0.116E-11 -.194E+01   0.220E-17 -.141E-17 0.737E-01   -.820E-12 -.148E-08 0.191E-04
   -.133E-06 -.211E-06 0.187E+01   0.195E-13 -.130E-10 -.194E+01   -.929E-17 -.101E-16 0.737E-01   0.992E-12 0.148E-08 0.191E-04
   -.133E-06 0.211E-06 0.187E+01   0.249E-10 -.302E-12 -.194E+01   0.346E-17 -.350E-17 0.737E-01   -.102E-11 -.148E-08 0.191E-04
   -.133E-06 0.211E-06 0.187E+01   -.285E-11 -.987E-11 -.194E+01   -.440E-17 0.297E-17 0.737E-01   -.657E-12 -.148E-08 0.191E-04
   -.133E-06 0.211E-06 0.187E+01   0.235E-10 0.206E-11 -.194E+01   0.601E-18 0.694E-17 0.737E-01   -.832E-12 -.148E-08 0.191E-04
   -.133E-06 -.211E-06 0.187E+01   -.200E-10 -.208E-11 -.194E+01   0.128E-16 0.470E-17 0.737E-01   0.120E-11 0.148E-08 0.191E-04
   -.133E-06 0.211E-06 0.187E+01   -.182E-10 0.174E-11 -.194E+01   -.614E-17 -.488E-17 0.737E-01   0.158E-11 -.148E-08 0.191E-04
   -.133E-06 -.211E-06 0.187E+01   -.201E-10 -.210E-11 -.194E+01   -.110E-16 -.755E-17 0.737E-01   0.104E-11 0.148E-08 0.191E-04
   -.133E-06 0.211E-06 0.187E+01   -.196E-10 0.258E-11 -.194E+01   0.539E-17 0.630E-17 0.737E-01   0.170E-11 -.148E-08 0.191E-04
   -.133E-06 -.211E-06 0.187E+01   0.777E-11 0.110E-10 -.194E+01   0.172E-16 -.319E-17 0.737E-01   0.555E-12 0.148E-08 0.191E-04
   -.133E-06 0.211E-06 0.187E+01   -.236E-10 0.106E-11 -.194E+01   -.986E-17 0.857E-17 0.737E-01   -.443E-12 -.148E-08 0.191E-04
   -.133E-06 -.211E-06 0.187E+01   0.795E-11 0.114E-10 -.194E+01   -.911E-17 0.300E-17 0.737E-01   0.586E-12 0.148E-08 0.191E-04
   -.133E-06 0.211E-06 0.187E+01   -.236E-10 0.104E-11 -.194E+01   0.122E-16 -.534E-17 0.737E-01   -.722E-13 -.148E-08 0.191E-04
   -.133E-06 -.211E-06 0.187E+01   -.283E-11 0.967E-11 -.194E+01   0.649E-17 0.119E-17 0.737E-01   -.118E-11 0.148E-08 0.191E-04
   -.133E-06 0.211E-06 0.187E+01   0.542E-13 0.129E-10 -.194E+01   -.174E-17 0.339E-17 0.737E-01   -.578E-12 -.148E-08 0.191E-04
   -.133E-06 -.211E-06 0.187E+01   -.282E-11 0.969E-11 -.194E+01   -.101E-16 -.150E-17 0.737E-01   -.115E-11 0.148E-08 0.191E-04
   -.133E-06 0.211E-06 0.187E+01   0.480E-13 0.129E-10 -.194E+01   0.614E-17 0.404E-17 0.737E-01   -.648E-12 -.148E-08 0.191E-04
   -.133E-06 -.211E-06 0.187E+01   -.240E-10 -.275E-11 -.194E+01   0.231E-16 -.261E-18 0.737E-01   0.883E-12 0.148E-08 0.191E-04
   -.133E-06 0.211E-06 0.187E+01   0.725E-11 -.691E-11 -.194E+01   -.230E-17 -.539E-18 0.737E-01   0.128E-11 -.148E-08 0.191E-04
   -.133E-06 -.211E-06 0.187E+01   -.240E-10 -.277E-11 -.194E+01   -.187E-16 -.739E-17 0.737E-01   0.698E-12 0.148E-08 0.191E-04
   -.133E-06 0.211E-06 0.187E+01   0.606E-11 -.966E-11 -.194E+01   0.235E-17 -.785E-17 0.737E-01   0.130E-11 -.148E-08 0.191E-04
   -.133E-06 -.211E-06 0.187E+01   0.150E-11 0.113E-10 -.194E+01   0.162E-16 -.338E-17 0.737E-01   0.322E-12 0.148E-08 0.191E-04
   -.133E-06 -.211E-06 0.187E+01   0.173E-10 -.448E-11 -.194E+01   -.153E-16 0.564E-17 0.737E-01   -.131E-11 0.148E-08 0.191E-04
   -.133E-06 -.211E-06 0.187E+01   0.143E-11 0.114E-10 -.194E+01   -.137E-16 -.861E-18 0.737E-01   0.328E-12 0.148E-08 0.191E-04
   -.133E-06 0.211E-06 0.187E+01   0.236E-11 -.843E-11 -.194E+01   0.133E-17 -.209E-17 0.737E-01   -.463E-12 -.148E-08 0.191E-04
   -.133E-06 -.211E-06 0.187E+01   -.758E-11 0.770E-11 -.194E+01   0.103E-16 -.331E-17 0.737E-01   -.146E-11 0.148E-08 0.191E-04
   -.133E-06 -.211E-06 0.187E+01   -.761E-11 0.770E-11 -.194E+01   -.113E-16 0.111E-16 0.737E-01   -.153E-11 0.148E-08 0.191E-04
   -.133E-06 0.211E-06 0.187E+01   0.159E-10 0.340E-11 -.194E+01   0.860E-17 0.305E-17 0.737E-01   -.113E-11 -.148E-08 0.191E-04
 -----------------------------------------------------------------------------------------------
   -.367E-05 -.198E-09 -.250E+01   0.526E-15 -.136E-12 -.115E-12   0.929E-16 0.157E-16 0.248E+01   0.120E-11 -.187E-12 0.247E-02
 
 
 POSITION                                       TOTAL-FORCE (eV/Angst)
 -----------------------------------------------------------------------------------
      2.08442     -1.20344      3.39133        -0.000000      0.000000     -0.004634
      6.25326      6.01720     10.17095         0.000000     -0.000000     -0.004634
      6.25326      8.42408      6.78114        -0.000000     -0.000000     -0.004634
      8.33768      2.40688      3.39133        -0.000000     -0.000000     -0.004634
      8.33768      4.81376      6.78114        -0.000000     -0.000000     -0.004634
      4.16884     -4.81376      3.39133        -0.000000      0.000000     -0.004634
      4.16884     -2.40688      0.00152         0.000000     -0.000000     -0.004634
      8.33768     -4.81376     10.17095         0.000000      0.000000     -0.004634
      8.33768     -2.40688      0.00152         0.000000     -0.000000     -0.004634
      4.16884     -4.81376     10.17095         0.000000      0.000000     -0.004634
      4.16884     -2.40688      6.78114        -0.000000     -0.000000     -0.004634
      6.25326     -1.20344      3.39133        -0.000000     -0.000000     -0.004634
      6.25326      1.20344      0.00152         0.000000     -0.000000     -0.004634
      6.25326     -6.01720      6.78114        -0.000000     -0.000000     -0.004634
      6.25326     -8.42408     10.17095         0.000000      0.000000     -0.004634
      8.33768     -4.81376      3.39133        -0.000000      0.000000     -0.004634
      6.25326     -1.20344     10.17095        -0.000000      0.000000     -0.004634
      8.33768     -2.40688      6.78114        -0.000000     -0.000000     -0.004634
      6.25326      6.01720      3.39133        -0.000000     -0.000000     -0.004634
      2.08442      1.20344      0.00152         0.000000     -0.000000     -0.004634
     10.42210      1.20344      6.78114        -0.000000      0.000000     -0.004634
     10.42210     -1.20344     10.17095         0.000000     -0.000000     -0.004634
      2.08442     -1.20344     10.17095         0.000000      0.000000     -0.004634
      2.08442      1.20344      6.78114        -0.000000     -0.000000     -0.004634
      8.33768      2.40688     10.17095         0.000000     -0.000000     -0.004634
      6.25326      8.42408      0.00152         0.000000     -0.000000     -0.004634
      6.25326     -8.42408      3.39133        -0.000000      0.000000     -0.004634
      4.16884      4.81376      0.00152         0.000000     -0.000000     -0.004634
     10.42210      1.20344      0.00152         0.000000      0.000000     -0.004634
     10.42210     -1.20344      3.39133        -0.000000      0.000000     -0.004634
      4.16884      2.40688     10.17095         0.000000      0.000000     -0.004634
      4.16884      4.81376      6.78114        -0.000000      0.000000     -0.004634
      6.25326     -6.01720      0.00152         0.000000     -0.000000     -0.004634
      8.33768      4.81376      0.00152         0.000000     -0.000000     -0.004634
      4.16884      2.40688      3.39133        -0.000000      0.000000     -0.004634
      6.25326      1.20344      6.78114        -0.000000      0.000000     -0.004634
      6.25326     -8.42408      5.94420         0.000000     -0.000000      0.004634
      6.25326     -6.01720      2.55439         0.000000      0.000000      0.004634
      8.33768     -4.81376      5.94420         0.000000     -0.000000      0.004634
      6.25326     -6.01720      9.33401         0.000000     -0.000000      0.004634
      8.33768     -2.40688      2.55439         0.000000      0.000000      0.004634
      8.33768     -4.81376     12.72382        -0.000000     -0.000000      0.004634
      8.33768     -2.40688      9.33401         0.000000      0.000000      0.004634
     10.42210     -1.20344      5.94420         0.000000     -0.000000      0.004634
     10.42210      1.20344      2.55439        -0.000000      0.000000      0.004634
      6.25326     -8.42408     12.72382        -0.000000     -0.000000      0.004634
      8.33768      4.81376      9.33401         0.000000      0.000000      0.004634
      6.25326      1.20344      2.55439        -0.000000      0.000000      0.004634
      8.33768      4.81376      2.55439         0.000000     -0.000000      0.004634
      2.08442     -1.20344      5.94420         0.000000     -0.000000      0.004634
      2.08442      1.20344      2.55439        -0.000000      0.000000      0.004634
      2.08442     -1.20344     12.72382        -0.000000      0.000000      0.004634
      2.08442      1.20344      9.33401         0.000000      0.000000      0.004634
      4.16884      2.40688      5.94420         0.000000     -0.000000      0.004634
      4.16884      4.81376      2.55439        -0.000000      0.000000      0.004634
      4.16884      2.40688     12.72382        -0.000000      0.000000      0.004634
      4.16884      4.81376      9.33401         0.000000      0.000000      0.004634
      6.25326      6.01720      5.94420         0.000000     -0.000000      0.004634
      6.25326      8.42408      2.55439        -0.000000      0.000000      0.004634
      6.25326      6.01720     12.72382        -0.000000      0.000000      0.004634
      6.25326      8.42408      9.33401         0.000000      0.000000      0.004634
      4.16884     -4.81376      5.94420         0.000000     -0.000000      0.004634
      4.16884     -2.40688      2.55439        -0.000000      0.000000      0.004634
      4.16884     -4.81376     12.72382        -0.000000      0.000000      0.004634
      4.16884     -2.40688      9.33401         0.000000      0.000000      0.004634
      6.25326     -1.20344      5.94420         0.000000     -0.000000      0.004634
     10.42210     -1.20344     12.72382        -0.000000      0.000000      0.004634
      6.25326     -1.20344     12.72382        -0.000000     -0.000000      0.004634
      6.25326      1.20344      9.33401         0.000000      0.000000      0.004634
      8.33768      2.40688      5.94420         0.000000      0.000000      0.004634
      8.33768      2.40688     12.72382        -0.000000      0.000000      0.004634
     10.42210      1.20344      9.33401         0.000000      0.000000      0.004634
 -----------------------------------------------------------------------------------
    total drift:                               -0.000004     -0.000000     -0.013911


--------------------------------------------------------------------------------------------------------



  FREE ENERGIE OF THE ION-ELECTRON SYSTEM (eV)
  ---------------------------------------------------
  free  energy   TOTEN  =      -245.14772912 eV

  energy  without entropy=     -245.14772912  energy(sigma->0) =     -245.14772912
 


--------------------------------------------------------------------------------------------------------


    POTLOK:  cpu time      0.0965: real time      0.0968


--------------------------------------------------------------------------------------------------------


     LOOP+:  cpu time   1702.1005: real time   1716.5621
    4ORBIT:  cpu time      0.0000: real time      0.0000

 total amount of memory used by VASP MPI-rank0   365744. kBytes
=======================================================================

   base      :      30000. kBytes
   nonl-proj :     182983. kBytes
   fftplans  :       8559. kBytes
   grid      :      35755. kBytes
   one-center:       1119. kBytes
   wavefun   :     107328. kBytes
 
  
  
 General timing and accounting informations for this job:
 ========================================================
  
                  Total CPU time used (sec):     1734.370
                            User time (sec):     1733.143
                          System time (sec):        1.227
                         Elapsed time (sec):     1819.182
  
                   Maximum memory used (kb):      646760.
                   Average memory used (kb):          N/A
  
                          Minor page faults:        80167
                          Major page faults:            1
                 Voluntary context switches:        54475
