<?xml version="1.0" encoding="ISO-8859-1"?>
<modeling>
 <generator>
  <i name="program" type="string">vasp </i>
  <i name="version" type="string">6.4.2  </i>
  <i name="subversion" type="string">20Jul23 (build Sep 17 2025 15:35:10) complex                          parallel </i>
  <i name="platform" type="string">LinuxIFC </i>
  <i name="date" type="string">2025 10 09 </i>
  <i name="time" type="string">12:42:59 </i>
 </generator>
 <incar>
  <i type="int" name="ISTART">     0</i>
  <i type="string" name="PREC">Accurate</i>
  <i type="int" name="ICHARG">     2</i>
  <i type="int" name="NELM">   100</i>
  <i name="EDIFF">      0.00000100</i>
  <i name="ENCUT">    400.00000000</i>
  <i type="logical" name="LREAL"> F  </i>
  <i type="int" name="ISMEAR">     0</i>
  <i name="SIGMA">      0.05000000</i>
  <i type="logical" name="LWAVE"> F  </i>
  <i type="logical" name="LCHARG"> F  </i>
  <i type="string" name="GGA">PS</i>
 </incar>
 <primitive_cell>
  <structure name="primitive_cell" >
   <crystal>
    <varray name="basis" >
     <v>       2.08441905      -3.61031970       0.00000000 </v>
     <v>       2.08441905       3.61031970       0.00000000 </v>
     <v>       0.00000000       0.00000000       6.77961741 </v>
    </varray>
    <i name="volume">    102.03892544 </i>
    <varray name="rec_basis" >
     <v>       0.23987499      -0.13849189       0.00000000 </v>
     <v>       0.23987499       0.13849189       0.00000000 </v>
     <v>       0.00000000       0.00000000       0.14750095 </v>
    </varray>
   </crystal>
   <varray name="positions" >
    <v>       0.66666667       0.33333333       0.50022437 </v>
    <v>       0.33333333       0.66666667       0.00022437 </v>
    <v>       0.66666667       0.33333333       0.87677563 </v>
    <v>       0.33333333       0.66666667       0.37677563 </v>
   </varray>
  </structure>
  <varray name="primitive_index" >
   <v type="int" >        1 </v>
   <v type="int" >       24 </v>
   <v type="int" >       50 </v>
   <v type="int" >       51 </v>
  </varray>
 </primitive_cell>
 <kpoints>
  <generation param="Gamma">
   <v type="int" name="divisions">       5        5        5 </v>
   <v name="usershift">      0.00000000       0.00000000       0.00000000 </v>
   <v name="genvec1">      0.20000000       0.00000000       0.00000000 </v>
   <v name="genvec2">      0.00000000       0.20000000       0.00000000 </v>
   <v name="genvec3">      0.00000000       0.00000000       0.20000000 </v>
   <v name="shift">      0.00000000       0.00000000       0.00000000 </v>
  </generation>
  <varray name="kpointlist" >
   <v>       0.00000000       0.00000000       0.00000000 </v>
   <v>       0.20000000      -0.00000000       0.00000000 </v>
   <v>       0.40000000       0.00000000       0.00000000 </v>
   <v>       0.20000000       0.20000000       0.00000000 </v>
   <v>       0.40000000       0.20000000       0.00000000 </v>
   <v>       0.00000000       0.00000000       0.20000000 </v>
   <v>       0.20000000      -0.00000000       0.20000000 </v>
   <v>       0.40000000       0.00000000       0.20000000 </v>
   <v>       0.20000000       0.20000000       0.20000000 </v>
   <v>       0.40000000       0.20000000       0.20000000 </v>
   <v>       0.00000000       0.00000000       0.40000000 </v>
   <v>       0.20000000      -0.00000000       0.40000000 </v>
   <v>       0.40000000       0.00000000       0.40000000 </v>
   <v>       0.20000000       0.20000000       0.40000000 </v>
   <v>       0.40000000       0.20000000       0.40000000 </v>
  </varray>
  <varray name="weights" >
   <v>       0.00800000 </v>
   <v>       0.04800000 </v>
   <v>       0.04800000 </v>
   <v>       0.04800000 </v>
   <v>       0.04800000 </v>
   <v>       0.01600000 </v>
   <v>       0.09600000 </v>
   <v>       0.09600000 </v>
   <v>       0.09600000 </v>
   <v>       0.09600000 </v>
   <v>       0.01600000 </v>
   <v>       0.09600000 </v>
   <v>       0.09600000 </v>
   <v>       0.09600000 </v>
   <v>       0.09600000 </v>
  </varray>
 </kpoints>
 <parameters>
  <separator name="general" >
   <i type="string" name="SYSTEM">unknown system</i>
   <i type="logical" name="LCOMPAT"> F  </i>
  </separator>
  <separator name="electronic" >
   <i type="string" name="PREC">accura</i>
   <i name="ENMAX">    400.00000000</i>
   <i name="ENAUG">    456.10600000</i>
   <i name="EDIFF">      0.00000100</i>
   <i type="int" name="IALGO">    38</i>
   <i type="int" name="IWAVPR">    10</i>
   <i type="int" name="NBANDS">   416</i>
   <i type="int" name="NBANDSLOW">    -1</i>
   <i type="int" name="NBANDSHIGH">    -1</i>
   <i name="NELECT">    648.00000000</i>
   <i type="int" name="TURBO">     0</i>
   <i type="int" name="IRESTART">     0</i>
   <i type="int" name="NREBOOT">     0</i>
   <i type="int" name="NMIN">     0</i>
   <i name="EREF">      0.00000000</i>
   <separator name="electronic smearing" >
    <i type="int" name="ISMEAR">     0</i>
    <i name="SIGMA">      0.05000000</i>
    <i name="KSPACING">      0.50000000</i>
    <i type="logical" name="KGAMMA"> T  </i>
    <i type="logical" name="KBLOWUP"> T  </i>
   </separator>
   <separator name="electronic projectors" >
    <i type="logical" name="LREAL"> F  </i>
    <v name="ROPT">      0.00000000      0.00000000</v>
    <i type="int" name="LMAXPAW">  -100</i>
    <i type="int" name="LMAXMIX">     2</i>
    <i type="logical" name="NLSPLINE"> F  </i>
   </separator>
   <separator name="electronic startup" >
    <i type="int" name="ISTART">     0</i>
    <i type="int" name="ICHARG">     2</i>
    <i type="int" name="INIWAV">     1</i>
   </separator>
   <separator name="electronic spin" >
    <i type="int" name="ISPIN">     1</i>
    <i type="logical" name="LNONCOLLINEAR"> F  </i>
    <v name="MAGMOM">      1.00000000      1.00000000      1.00000000      1.00000000      1.00000000      1.00000000      1.00000000      1.00000000      1.00000000      1.00000000      1.00000000      1.00000000      1.00000000      1.00000000      1.00000000      1.00000000      1.00000000      1.00000000      1.00000000      1.00000000
      1.00000000      1.00000000      1.00000000      1.00000000      1.00000000      1.00000000      1.00000000      1.00000000      1.00000000      1.00000000      1.00000000      1.00000000      1.00000000      1.00000000      1.00000000      1.00000000      1.00000000      1.00000000      1.00000000      1.00000000
      1.00000000      1.00000000      1.00000000      1.00000000      1.00000000      1.00000000      1.00000000      1.00000000      1.00000000      1.00000000      1.00000000      1.00000000      1.00000000      1.00000000      1.00000000      1.00000000      1.00000000      1.00000000      1.00000000      1.00000000
      1.00000000      1.00000000      1.00000000      1.00000000      1.00000000      1.00000000      1.00000000      1.00000000      1.00000000      1.00000000      1.00000000      1.00000000</v>
    <i name="NUPDOWN">     -1.00000000</i>
    <i type="logical" name="LSORBIT"> F  </i>
    <v name="SAXIS">      0.00000000      0.00000000      1.00000000</v>
    <i type="logical" name="LSPIRAL"> F  </i>
    <v name="QSPIRAL">      0.00000000      0.00000000      0.00000000</v>
    <i type="logical" name="LZEROZ"> F  </i>
   </separator>
   <separator name="electronic exchange-correlation" >
    <i type="logical" name="LASPH"> F  </i>
    <i type="logical" name="LMETAGGA"> F  </i>
   </separator>
   <separator name="electronic convergence" >
    <i type="int" name="NELM">   100</i>
    <i type="int" name="NELMDL">    -5</i>
    <i type="int" name="NELMIN">     2</i>
    <i name="ENINI">    400.00000000</i>
    <separator name="electronic convergence detail" >
     <i type="logical" name="LDIAG"> T  </i>
     <i type="logical" name="LSUBROT"> F  </i>
     <i name="WEIMIN">      0.00000000</i>
     <i name="EBREAK">      0.00000000</i>
     <i name="DEPER">      0.30000000</i>
     <i type="int" name="NRMM">     4</i>
     <i name="TIME">      0.40000000</i>
    </separator>
   </separator>
   <separator name="electronic mixer" >
    <i name="AMIX">      0.40000000</i>
    <i name="BMIX">      1.00000000</i>
    <i name="AMIN">      0.10000000</i>
    <i name="AMIX_MAG">      1.60000000</i>
    <i name="BMIX_MAG">      1.00000000</i>
    <separator name="electronic mixer details" >
     <i type="int" name="IMIX">     4</i>
     <i type="logical" name="MIXFIRST"> F  </i>
     <i type="int" name="MAXMIX">   -45</i>
     <i name="WC">    100.00000000</i>
     <i type="int" name="INIMIX">     1</i>
     <i type="int" name="MIXPRE">     1</i>
     <i type="int" name="MREMOVE">     5</i>
    </separator>
   </separator>
   <separator name="electronic dipolcorrection" >
    <i type="logical" name="LDIPOL"> F  </i>
    <i type="logical" name="LMONO"> F  </i>
    <i type="int" name="IDIPOL">     0</i>
    <i name="EPSILON">      1.00000000</i>
    <v name="DIPOL">   -100.00000000   -100.00000000   -100.00000000</v>
    <i name="EFIELD">      0.00000000</i>
   </separator>
  </separator>
  <separator name="grids" >
   <i type="int" name="NGX">    84</i>
   <i type="int" name="NGY">    84</i>
   <i type="int" name="NGZ">    90</i>
   <i type="int" name="NGXF">   168</i>
   <i type="int" name="NGYF">   168</i>
   <i type="int" name="NGZF">   180</i>
   <i type="logical" name="ADDGRID"> F  </i>
  </separator>
  <separator name="ionic" >
   <i type="int" name="NSW">     0</i>
   <i type="int" name="IBRION">    -1</i>
   <i type="int" name="MDALGO">     0</i>
   <i type="int" name="ISIF">     2</i>
   <i name="PSTRESS">      0.00000000</i>
   <i name="EDIFFG">      0.00001000</i>
   <i type="int" name="NFREE">     0</i>
   <i name="POTIM">      0.50000000</i>
   <i name="SMASS">     -3.00000000</i>
   <i name="SCALEE">      1.00000000</i>
  </separator>
  <separator name="ionic md" >
   <i name="TEBEG">      0.00010000</i>
   <i name="TEEND">      0.00010000</i>
   <i type="int" name="NBLOCK">     1</i>
   <i type="int" name="KBLOCK">     1</i>
   <i type="int" name="NPACO">   256</i>
   <i name="APACO">     10.00000000</i>
  </separator>
  <separator name="symmetry" >
   <i type="int" name="ISYM">     2</i>
   <i name="SYMPREC">      0.00001000</i>
  </separator>
  <separator name="dos" >
   <i type="int" name="LORBIT">     0</i>
   <v name="RWIGS">     -1.00000000     -1.00000000</v>
   <i type="int" name="NEDOS">   301</i>
   <i name="EMIN">     10.00000000</i>
   <i name="EMAX">    -10.00000000</i>
   <i name="EFERMI">      0.00000000</i>
  </separator>
  <separator name="writing" >
   <i type="int" name="NWRITE">     2</i>
   <i type="logical" name="LWAVE"> F  </i>
   <i type="logical" name="LDOWNSAMPLE"> F  </i>
   <i type="logical" name="LCHARG"> F  </i>
   <i type="logical" name="LPARD"> F  </i>
   <i type="logical" name="LVTOT"> F  </i>
   <i type="logical" name="LVHAR"> F  </i>
   <i type="logical" name="LELF"> F  </i>
   <i type="logical" name="LOPTICS"> F  </i>
   <v name="STM">      0.00000000      0.00000000      0.00000000      0.00000000      0.00000000      0.00000000      0.00000000</v>
  </separator>
  <separator name="performance" >
   <i type="int" name="NPAR">    32</i>
   <i type="int" name="NSIM">     4</i>
   <i type="int" name="NBLK">    -1</i>
   <i type="logical" name="LPLANE"> T  </i>
   <i type="logical" name="LSCALAPACK"> T  </i>
   <i type="logical" name="LSCAAWARE"> F  </i>
   <i type="logical" name="LSCALU"> F  </i>
   <i type="logical" name="LASYNC"> F  </i>
   <i type="logical" name="LORBITALREAL"> F  </i>
  </separator>
  <separator name="miscellaneous" >
   <i type="int" name="IDIOT">     3</i>
   <i type="int" name="PHON_NSTRUCT">    -1</i>
   <i type="logical" name="LMUSIC"> F  </i>
   <v name="POMASS">    112.41100000     32.06600000</v>
   <v name="DARWINR">      0.00000000      0.00000000</v>
   <v name="DARWINV">      1.00000000      1.00000000</v>
   <i type="logical" name="LCORR"> T  </i>
  </separator>
  <i type="logical" name="GGA_COMPAT"> T  </i>
  <i type="logical" name="LBERRY"> F  </i>
  <i type="int" name="ICORELEVEL">     0</i>
  <i type="logical" name="LDAU"> F  </i>
  <i type="int" name="I_CONSTRAINED_M">     0</i>
  <separator name="electronic exchange-correlation" >
   <i type="string" name="GGA">PS</i>
   <i type="int" name="VOSKOWN">     0</i>
   <i type="logical" name="LHFCALC"> F  </i>
   <i type="string" name="PRECFOCK"></i>
   <i type="logical" name="LSYMGRAD"> F  </i>
   <i type="logical" name="LHFONE"> F  </i>
   <i type="logical" name="LRHFCALC"> F  </i>
   <i type="logical" name="LTHOMAS"> F  </i>
   <i type="logical" name="LMODELHF"> F  </i>
   <i type="logical" name="LFOCKACE"> F  </i>
   <i name="ENCUT4O">     -1.00000000</i>
   <i type="int" name="EXXOEP">     0</i>
   <i type="int" name="FOURORBIT">     0</i>
   <i name="AEXX">      0.00000000</i>
   <i name="HFALPHA">      0.00000000</i>
   <i name="MCALPHA">      0.00000000</i>
   <i name="ALDAX">      1.00000000</i>
   <i name="AGGAX">      1.00000000</i>
   <i name="ALDAC">      1.00000000</i>
   <i name="AGGAC">      1.00000000</i>
   <i type="int" name="NKREDX">     1</i>
   <i type="int" name="NKREDY">     1</i>
   <i type="int" name="NKREDZ">     1</i>
   <i type="logical" name="SHIFTRED"> F  </i>
   <i type="logical" name="ODDONLY"> F  </i>
   <i type="logical" name="EVENONLY"> F  </i>
   <i type="int" name="LMAXFOCK">     0</i>
   <i type="int" name="NMAXFOCKAE">     0</i>
   <i type="logical" name="LFOCKAEDFT"> F  </i>
   <i name="HFSCREEN">      0.00000000</i>
   <i name="HFSCREENC">      0.00000000</i>
   <i type="int" name="NBANDSGWLOW">     0</i>
  </separator>
  <separator name="vdW DFT" >
   <i type="logical" name="LUSE_VDW"> F  </i>
   <i type="int" name="IVDW_NL">     1</i>
   <i type="logical" name="LSPIN_VDW"> F  </i>
   <i name="Zab_VDW">     -0.84910000</i>
   <i name="PARAM1">      0.12340000</i>
   <i name="PARAM2">      1.00000000</i>
   <i name="PARAM3">      0.00000000</i>
  </separator>
  <separator name="model GW" >
   <i type="int" name="MODEL_GW">     0</i>
   <i name="MODEL_EPS0">     15.30583882</i>
   <i name="MODEL_ALPHA">      1.00000000</i>
  </separator>
  <separator name="linear response parameters" >
   <i type="logical" name="LEPSILON"> F  </i>
   <i type="logical" name="LRPA"> F  </i>
   <i type="logical" name="LNABLA"> F  </i>
   <i type="logical" name="LVEL"> F  </i>
   <i name="CSHIFT">      0.10000000</i>
   <i name="OMEGAMAX">     -1.00000000</i>
   <i name="DEG_THRESHOLD">      0.00200000</i>
   <i name="RTIME">     -0.10000000</i>
   <i name="WPLASMAI">      0.00000000</i>
   <v name="DFIELD">      0.00000000      0.00000000      0.00000000</v>
   <v name="WPLASMA">      0.00000000      0.00000000      0.00000000      0.00000000      0.00000000      0.00000000      0.00000000      0.00000000      0.00000000</v>
  </separator>
  <separator name="orbital magnetization" >
   <i type="logical" name="NUCIND"> F  </i>
   <v name="MAGPOS">      0.00000000      0.00000000      0.00000000</v>
   <i type="logical" name="LNICSALL"> T  </i>
   <i type="logical" name="ORBITALMAG"> F  </i>
   <i type="logical" name="LMAGBLOCH"> F  </i>
   <i type="logical" name="LCHIMAG"> F  </i>
   <i type="logical" name="LGAUGE"> T  </i>
   <i type="int" name="MAGATOM">     0</i>
   <v name="MAGDIPOL">      0.00000000      0.00000000      0.00000000</v>
   <v name="AVECCONST">      0.00000000      0.00000000      0.00000000</v>
  </separator>
  <separator name="response functions" >
   <i type="logical" name="LALL_IN_ONE"> F  </i>
   <i type="int" name="IALL_IN_ONE">    -1</i>
   <i type="int" name="NBANDS_WAVE">    -1</i>
   <i type="logical" name="LFINITE_TEMPERATURE"> F  </i>
   <i type="logical" name="LADDER"> F  </i>
   <i type="logical" name="LRPAFORCE"> F  </i>
   <i type="logical" name="LFXC"> F  </i>
   <i type="logical" name="LHARTREE"> T  </i>
   <i type="int" name="IBSE">     0</i>
   <v type="int" name="KPOINT">    -1     0     0     0</v>
   <i type="logical" name="LTCTC"> F  </i>
   <i type="logical" name="LTCTE"> F  </i>
   <i type="logical" name="LTETE"> F  </i>
   <i type="logical" name="LTRIPLET"> F  </i>
   <i type="logical" name="LFXCEPS"> F  </i>
   <i type="logical" name="LFXHEG"> F  </i>
   <i type="int" name="NATURALO">     2</i>
   <i type="logical" name="LHOLEGF"> F  </i>
   <i type="logical" name="L2ORDER"> F  </i>
   <i type="logical" name="LDMP1"> F  </i>
   <i type="logical" name="LMP2LT"> F  </i>
   <i type="logical" name="LSMP2LT"> F  </i>
   <i type="logical" name="LGWLF"> F  </i>
   <i name="ENCUTGW">     -1.60000002</i>
   <i name="ENCUTGWSOFT">     -1.60000002</i>
   <i name="ENCUTLF">     -1.00000000</i>
   <i type="logical" name="LESF_SPLINES"> F  </i>
   <i type="int" name="LMAXMP2">    -1</i>
   <i name="SCISSOR">      0.00000000</i>
   <i type="int" name="NOMEGA">     0</i>
   <i type="int" name="NOMEGAR">     0</i>
   <i type="int" name="NBANDSGW">    -1</i>
   <i type="int" name="NBANDSO">    -1</i>
   <i type="int" name="NBANDSV">    -1</i>
   <i type="int" name="NELMGW">     1</i>
   <i type="int" name="NELMHF">     1</i>
   <i type="int" name="DIM">     3</i>
   <i type="int" name="IESPILON">     4</i>
   <i type="int" name="ANTIRES">     0</i>
   <i name="OMEGAMAX">    -30.00000000</i>
   <i name="OMEGAMIN">    -30.00000000</i>
   <i name="OMEGATL">   -200.00000000</i>
   <i type="int" name="OMEGAGRID">     0</i>
   <i name="CSHIFT">     -0.10000000</i>
   <i type="logical" name="LSELFENERGY"> F  </i>
   <i type="logical" name="LSPECTRAL"> F  </i>
   <i type="logical" name="LSPECTRALGW"> F  </i>
   <i type="logical" name="LSINGLES"> F  </i>
   <i type="logical" name="LFERMIGW"> F  </i>
   <i type="logical" name="ODDONLYGW"> F  </i>
   <i type="logical" name="EVENONLYGW"> F  </i>
   <i type="int" name="NKREDLFX">     1</i>
   <i type="int" name="NKREDLFY">     1</i>
   <i type="int" name="NKREDLFZ">     1</i>
   <i type="int" name="MAXMEM">  2800</i>
   <i type="int" name="TELESCOPE">     0</i>
   <i type="int" name="NTAUPAR">    -1</i>
   <i type="int" name="NOMEGAPAR">    -1</i>
   <i name="DAMP_NEWTON">      0.80000001</i>
   <i name="LAMBDA">      1.00000000</i>
  </separator>
  <separator name="External order field" >
   <i name="OFIELD_KAPPA">      0.00000000</i>
   <v name="OFIELD_K">      0.00000000      0.00000000      0.00000000</v>
   <i name="OFIELD_Q6_NEAR">      0.00000000</i>
   <i name="OFIELD_Q6_FAR">      0.00000000</i>
   <i name="OFIELD_A">      0.00000000</i>
  </separator>
  <separator name="optional k-points parameters" >
   <i type="int" name="KPOINTS_OPT_MODE">     1</i>
   <i type="logical" name="LKPOINTS_OPT"> F  </i>
  </separator>
 </parameters>
 <atominfo>
  <atoms>      72 </atoms>
  <types>       2 </types>
  <array name="atoms" >
   <dimension dim="1">ion</dimension>
   <field type="string">element</field>
   <field type="int">atomtype</field>
   <set>
    <rc><c>Cd</c><c>   1</c></rc>
    <rc><c>Cd</c><c>   1</c></rc>
    <rc><c>Cd</c><c>   1</c></rc>
    <rc><c>Cd</c><c>   1</c></rc>
    <rc><c>Cd</c><c>   1</c></rc>
    <rc><c>Cd</c><c>   1</c></rc>
    <rc><c>Cd</c><c>   1</c></rc>
    <rc><c>Cd</c><c>   1</c></rc>
    <rc><c>Cd</c><c>   1</c></rc>
    <rc><c>Cd</c><c>   1</c></rc>
    <rc><c>Cd</c><c>   1</c></rc>
    <rc><c>Cd</c><c>   1</c></rc>
    <rc><c>Cd</c><c>   1</c></rc>
    <rc><c>Cd</c><c>   1</c></rc>
    <rc><c>Cd</c><c>   1</c></rc>
    <rc><c>Cd</c><c>   1</c></rc>
    <rc><c>Cd</c><c>   1</c></rc>
    <rc><c>Cd</c><c>   1</c></rc>
    <rc><c>Cd</c><c>   1</c></rc>
    <rc><c>Cd</c><c>   1</c></rc>
    <rc><c>Cd</c><c>   1</c></rc>
    <rc><c>Cd</c><c>   1</c></rc>
    <rc><c>Cd</c><c>   1</c></rc>
    <rc><c>Cd</c><c>   1</c></rc>
    <rc><c>Cd</c><c>   1</c></rc>
    <rc><c>Cd</c><c>   1</c></rc>
    <rc><c>Cd</c><c>   1</c></rc>
    <rc><c>Cd</c><c>   1</c></rc>
    <rc><c>Cd</c><c>   1</c></rc>
    <rc><c>Cd</c><c>   1</c></rc>
    <rc><c>Cd</c><c>   1</c></rc>
    <rc><c>Cd</c><c>   1</c></rc>
    <rc><c>Cd</c><c>   1</c></rc>
    <rc><c>Cd</c><c>   1</c></rc>
    <rc><c>Cd</c><c>   1</c></rc>
    <rc><c>Cd</c><c>   1</c></rc>
    <rc><c>S </c><c>   2</c></rc>
    <rc><c>S </c><c>   2</c></rc>
    <rc><c>S </c><c>   2</c></rc>
    <rc><c>S </c><c>   2</c></rc>
    <rc><c>S </c><c>   2</c></rc>
    <rc><c>S </c><c>   2</c></rc>
    <rc><c>S </c><c>   2</c></rc>
    <rc><c>S </c><c>   2</c></rc>
    <rc><c>S </c><c>   2</c></rc>
    <rc><c>S </c><c>   2</c></rc>
    <rc><c>S </c><c>   2</c></rc>
    <rc><c>S </c><c>   2</c></rc>
    <rc><c>S </c><c>   2</c></rc>
    <rc><c>S </c><c>   2</c></rc>
    <rc><c>S </c><c>   2</c></rc>
    <rc><c>S </c><c>   2</c></rc>
    <rc><c>S </c><c>   2</c></rc>
    <rc><c>S </c><c>   2</c></rc>
    <rc><c>S </c><c>   2</c></rc>
    <rc><c>S </c><c>   2</c></rc>
    <rc><c>S </c><c>   2</c></rc>
    <rc><c>S </c><c>   2</c></rc>
    <rc><c>S </c><c>   2</c></rc>
    <rc><c>S </c><c>   2</c></rc>
    <rc><c>S </c><c>   2</c></rc>
    <rc><c>S </c><c>   2</c></rc>
    <rc><c>S </c><c>   2</c></rc>
    <rc><c>S </c><c>   2</c></rc>
    <rc><c>S </c><c>   2</c></rc>
    <rc><c>S </c><c>   2</c></rc>
    <rc><c>S </c><c>   2</c></rc>
    <rc><c>S </c><c>   2</c></rc>
    <rc><c>S </c><c>   2</c></rc>
    <rc><c>S </c><c>   2</c></rc>
    <rc><c>S </c><c>   2</c></rc>
    <rc><c>S </c><c>   2</c></rc>
   </set>
  </array>
  <array name="atomtypes" >
   <dimension dim="1">type</dimension>
   <field type="int">atomspertype</field>
   <field type="string">element</field>
   <field>mass</field>
   <field>valence</field>
   <field type="string">pseudopotential</field>
   <set>
    <rc><c>  36</c><c>Cd</c><c>    112.41100000</c><c>     12.00000000</c><c>  PAW_PBE Cd 06Sep2000                  </c></rc>
    <rc><c>  36</c><c>S </c><c>     32.06600000</c><c>      6.00000000</c><c>  PAW_PBE S 06Sep2000                   </c></rc>
   </set>
  </array>
 </atominfo>
 <structure name="initialpos" >
  <crystal>
   <varray name="basis" >
    <v>       6.25325715     -10.83095910       0.00000000 </v>
    <v>       6.25325715      10.83095910       0.00000000 </v>
    <v>       0.00000000       0.00000000      13.55923482 </v>
   </varray>
   <i name="volume">   1836.70065798 </i>
   <varray name="rec_basis" >
    <v>       0.07995833      -0.04616396       0.00000000 </v>
    <v>       0.07995833       0.04616396       0.00000000 </v>
    <v>       0.00000000       0.00000000       0.07375047 </v>
   </varray>
  </crystal>
  <varray name="positions" >
   <v>       0.22222222       0.11111111       0.25011218 </v>
   <v>       0.22222222       0.77777778       0.75011218 </v>
   <v>       0.11111111       0.88888889       0.50011218 </v>
   <v>       0.55555556       0.77777778       0.25011218 </v>
   <v>       0.44444444       0.88888889       0.50011218 </v>
   <v>       0.55555556       0.11111111       0.25011218 </v>
   <v>       0.44444444       0.22222222       0.00011218 </v>
   <v>       0.88888889       0.44444444       0.75011218 </v>
   <v>       0.77777778       0.55555556       0.00011218 </v>
   <v>       0.55555556       0.11111111       0.75011218 </v>
   <v>       0.44444444       0.22222222       0.50011218 </v>
   <v>       0.55555556       0.44444444       0.25011218 </v>
   <v>       0.44444444       0.55555556       0.00011218 </v>
   <v>       0.77777778       0.22222222       0.50011218 </v>
   <v>       0.88888889       0.11111111       0.75011218 </v>
   <v>       0.88888889       0.44444444       0.25011218 </v>
   <v>       0.55555556       0.44444444       0.75011218 </v>
   <v>       0.77777778       0.55555556       0.50011218 </v>
   <v>       0.22222222       0.77777778       0.25011218 </v>
   <v>       0.11111111       0.22222222       0.00011218 </v>
   <v>       0.77777778       0.88888889       0.50011218 </v>
   <v>       0.88888889       0.77777778       0.75011218 </v>
   <v>       0.22222222       0.11111111       0.75011218 </v>
   <v>       0.11111111       0.22222222       0.50011218 </v>
   <v>       0.55555556       0.77777778       0.75011218 </v>
   <v>       0.11111111       0.88888889       0.00011218 </v>
   <v>       0.88888889       0.11111111       0.25011218 </v>
   <v>       0.11111111       0.55555556       0.00011218 </v>
   <v>       0.77777778       0.88888889       0.00011218 </v>
   <v>       0.88888889       0.77777778       0.25011218 </v>
   <v>       0.22222222       0.44444444       0.75011218 </v>
   <v>       0.11111111       0.55555556       0.50011218 </v>
   <v>       0.77777778       0.22222222       0.00011218 </v>
   <v>       0.44444444       0.88888889       0.00011218 </v>
   <v>       0.22222222       0.44444444       0.25011218 </v>
   <v>       0.44444444       0.55555556       0.50011218 </v>
   <v>       0.88888889       0.11111111       0.43838781 </v>
   <v>       0.77777778       0.22222222       0.18838781 </v>
   <v>       0.88888889       0.44444444       0.43838781 </v>
   <v>       0.77777778       0.22222222       0.68838781 </v>
   <v>       0.77777778       0.55555556       0.18838781 </v>
   <v>       0.88888889       0.44444444       0.93838781 </v>
   <v>       0.77777778       0.55555556       0.68838781 </v>
   <v>       0.88888889       0.77777778       0.43838781 </v>
   <v>       0.77777778       0.88888889       0.18838781 </v>
   <v>       0.88888889       0.11111111       0.93838781 </v>
   <v>       0.44444444       0.88888889       0.68838781 </v>
   <v>       0.44444444       0.55555556       0.18838781 </v>
   <v>       0.44444444       0.88888889       0.18838781 </v>
   <v>       0.22222222       0.11111111       0.43838781 </v>
   <v>       0.11111111       0.22222222       0.18838781 </v>
   <v>       0.22222222       0.11111111       0.93838781 </v>
   <v>       0.11111111       0.22222222       0.68838781 </v>
   <v>       0.22222222       0.44444444       0.43838781 </v>
   <v>       0.11111111       0.55555556       0.18838781 </v>
   <v>       0.22222222       0.44444444       0.93838781 </v>
   <v>       0.11111111       0.55555556       0.68838781 </v>
   <v>       0.22222222       0.77777778       0.43838781 </v>
   <v>       0.11111111       0.88888889       0.18838781 </v>
   <v>       0.22222222       0.77777778       0.93838781 </v>
   <v>       0.11111111       0.88888889       0.68838781 </v>
   <v>       0.55555556       0.11111111       0.43838781 </v>
   <v>       0.44444444       0.22222222       0.18838781 </v>
   <v>       0.55555556       0.11111111       0.93838781 </v>
   <v>       0.44444444       0.22222222       0.68838781 </v>
   <v>       0.55555556       0.44444444       0.43838781 </v>
   <v>       0.88888889       0.77777778       0.93838781 </v>
   <v>       0.55555556       0.44444444       0.93838781 </v>
   <v>       0.44444444       0.55555556       0.68838781 </v>
   <v>       0.55555556       0.77777778       0.43838781 </v>
   <v>       0.55555556       0.77777778       0.93838781 </v>
   <v>       0.77777778       0.88888889       0.68838781 </v>
  </varray>
 </structure>
 <calculation>
  <scstep>
   <time name="dav">   94.90   98.28</time>
   <time name="total">   95.52   99.24</time>
   <energy>
    <i name="alphaZ">   2675.77335074 </i>
    <i name="ewald"> -41363.78645763 </i>
    <i name="hartreedc"> -16920.60810503 </i>
    <i name="XCdc">    684.19700056 </i>
    <i name="pawpsdc">  50859.63822305 </i>
    <i name="pawaedc"> -49554.61650470 </i>
    <i name="eentropy">     -0.02405842 </i>
    <i name="bandstr">   1206.71032336 </i>
    <i name="atom">  56479.20065936 </i>
    <i name="e_fr_energy">   4066.48443130 </i>
    <i name="e_wo_entrp">   4066.50848973 </i>
    <i name="e_0_energy">   4066.49646051 </i>
   </energy>
  </scstep>
  <scstep>
   <time name="dav">  100.51  101.67</time>
   <time name="total">  100.51  101.68</time>
   <energy>
    <i name="e_fr_energy">     21.40099986 </i>
    <i name="e_wo_entrp">     21.40099986 </i>
    <i name="e_0_energy">     21.40099986 </i>
   </energy>
  </scstep>
  <scstep>
   <time name="dav">   99.13  100.08</time>
   <time name="total">   99.13  100.08</time>
   <energy>
    <i name="e_fr_energy">   -258.24813044 </i>
    <i name="e_wo_entrp">   -258.24813044 </i>
    <i name="e_0_energy">   -258.24813044 </i>
   </energy>
  </scstep>
  <scstep>
   <time name="dav">   97.73   98.29</time>
   <time name="total">   97.73   98.29</time>
   <energy>
    <i name="e_fr_energy">   -263.09125776 </i>
    <i name="e_wo_entrp">   -263.09125776 </i>
    <i name="e_0_energy">   -263.09125776 </i>
   </energy>
  </scstep>
  <scstep>
   <time name="dav">   98.46   99.01</time>
   <time name="total">  100.98  101.57</time>
   <energy>
    <i name="e_fr_energy">   -263.18991797 </i>
    <i name="e_wo_entrp">   -263.18991797 </i>
    <i name="e_0_energy">   -263.18991797 </i>
   </energy>
  </scstep>
  <scstep>
   <time name="dav">  108.70  109.33</time>
   <time name="total">  111.31  111.96</time>
   <energy>
    <i name="e_fr_energy">   -245.59296327 </i>
    <i name="e_wo_entrp">   -245.59296327 </i>
    <i name="e_0_energy">   -245.59296327 </i>
   </energy>
  </scstep>
  <scstep>
   <time name="dav">   96.95   97.49</time>
   <time name="total">   99.58  100.13</time>
   <energy>
    <i name="e_fr_energy">   -245.42852840 </i>
    <i name="e_wo_entrp">   -245.42852840 </i>
    <i name="e_0_energy">   -245.42852840 </i>
   </energy>
  </scstep>
  <scstep>
   <time name="dav">  103.79  104.38</time>
   <time name="total">  107.99  108.61</time>
   <energy>
    <i name="e_fr_energy">   -245.16199668 </i>
    <i name="e_wo_entrp">   -245.16199668 </i>
    <i name="e_0_energy">   -245.16199668 </i>
   </energy>
  </scstep>
  <scstep>
   <time name="dav">  127.01  127.82</time>
   <time name="total">  129.68  130.51</time>
   <energy>
    <i name="e_fr_energy">   -245.14928384 </i>
    <i name="e_wo_entrp">   -245.14928384 </i>
    <i name="e_0_energy">   -245.14928384 </i>
   </energy>
  </scstep>
  <scstep>
   <time name="dav">   99.84  100.41</time>
   <time name="total">  102.75  103.34</time>
   <energy>
    <i name="e_fr_energy">   -245.14558596 </i>
    <i name="e_wo_entrp">   -245.14558596 </i>
    <i name="e_0_energy">   -245.14558596 </i>
   </energy>
  </scstep>
  <scstep>
   <time name="dav">  101.69  102.46</time>
   <time name="total">  104.33  105.12</time>
   <energy>
    <i name="e_fr_energy">   -245.14633631 </i>
    <i name="e_wo_entrp">   -245.14633631 </i>
    <i name="e_0_energy">   -245.14633631 </i>
   </energy>
  </scstep>
  <scstep>
   <time name="dav">   93.77   94.29</time>
   <time name="total">   96.37   96.92</time>
   <energy>
    <i name="e_fr_energy">   -245.14760217 </i>
    <i name="e_wo_entrp">   -245.14760217 </i>
    <i name="e_0_energy">   -245.14760217 </i>
   </energy>
  </scstep>
  <scstep>
   <time name="dav">   99.46  100.00</time>
   <time name="total">  102.07  102.63</time>
   <energy>
    <i name="e_fr_energy">   -245.14770484 </i>
    <i name="e_wo_entrp">   -245.14770484 </i>
    <i name="e_0_energy">   -245.14770484 </i>
   </energy>
  </scstep>
  <scstep>
   <time name="dav">   97.43   98.02</time>
   <time name="total">  100.04  100.64</time>
   <energy>
    <i name="e_fr_energy">   -245.14772545 </i>
    <i name="e_wo_entrp">   -245.14772545 </i>
    <i name="e_0_energy">   -245.14772545 </i>
   </energy>
  </scstep>
  <scstep>
   <time name="dav">   85.21   85.74</time>
   <time name="total">   87.84   88.38</time>
   <energy>
    <i name="e_fr_energy">   -245.14772880 </i>
    <i name="e_wo_entrp">   -245.14772880 </i>
    <i name="e_0_energy">   -245.14772880 </i>
   </energy>
  </scstep>
  <scstep>
   <time name="dav">   75.56   76.29</time>
   <time name="total">   75.66   76.39</time>
   <energy>
    <i name="alphaZ">   2675.77335074 </i>
    <i name="ewald"> -41363.78645763 </i>
    <i name="hartreedc"> -16793.80160338 </i>
    <i name="XCdc">    691.21026931 </i>
    <i name="pawpsdc">  64636.38950236 </i>
    <i name="pawaedc"> -63305.56006014 </i>
    <i name="eentropy">     -0.00000000 </i>
    <i name="bandstr">  -3264.57338975 </i>
    <i name="atom">  56479.20065936 </i>
    <i name="e_fr_energy">   -245.14772912 </i>
    <i name="e_wo_entrp">   -245.14772912 </i>
    <i name="e_0_energy">   -245.14772912 </i>
   </energy>
  </scstep>
  <structure>
   <crystal>
    <varray name="basis" >
     <v>       6.25325715     -10.83095910       0.00000000 </v>
     <v>       6.25325715      10.83095910       0.00000000 </v>
     <v>       0.00000000       0.00000000      13.55923482 </v>
    </varray>
    <i name="volume">   1836.70065798 </i>
    <varray name="rec_basis" >
     <v>       0.07995833      -0.04616396       0.00000000 </v>
     <v>       0.07995833       0.04616396       0.00000000 </v>
     <v>       0.00000000       0.00000000       0.07375047 </v>
    </varray>
   </crystal>
   <varray name="positions" >
    <v>       0.22222222       0.11111111       0.25011218 </v>
    <v>       0.22222222       0.77777778       0.75011218 </v>
    <v>       0.11111111       0.88888889       0.50011218 </v>
    <v>       0.55555556       0.77777778       0.25011218 </v>
    <v>       0.44444444       0.88888889       0.50011218 </v>
    <v>       0.55555556       0.11111111       0.25011218 </v>
    <v>       0.44444444       0.22222222       0.00011218 </v>
    <v>       0.88888889       0.44444444       0.75011218 </v>
    <v>       0.77777778       0.55555556       0.00011218 </v>
    <v>       0.55555556       0.11111111       0.75011218 </v>
    <v>       0.44444444       0.22222222       0.50011218 </v>
    <v>       0.55555556       0.44444444       0.25011218 </v>
    <v>       0.44444444       0.55555556       0.00011218 </v>
    <v>       0.77777778       0.22222222       0.50011218 </v>
    <v>       0.88888889       0.11111111       0.75011218 </v>
    <v>       0.88888889       0.44444444       0.25011218 </v>
    <v>       0.55555556       0.44444444       0.75011218 </v>
    <v>       0.77777778       0.55555556       0.50011218 </v>
    <v>       0.22222222       0.77777778       0.25011218 </v>
    <v>       0.11111111       0.22222222       0.00011218 </v>
    <v>       0.77777778       0.88888889       0.50011218 </v>
    <v>       0.88888889       0.77777778       0.75011218 </v>
    <v>       0.22222222       0.11111111       0.75011218 </v>
    <v>       0.11111111       0.22222222       0.50011218 </v>
    <v>       0.55555556       0.77777778       0.75011218 </v>
    <v>       0.11111111       0.88888889       0.00011218 </v>
    <v>       0.88888889       0.11111111       0.25011218 </v>
    <v>       0.11111111       0.55555556       0.00011218 </v>
    <v>       0.77777778       0.88888889       0.00011218 </v>
    <v>       0.88888889       0.77777778       0.25011218 </v>
    <v>       0.22222222       0.44444444       0.75011218 </v>
    <v>       0.11111111       0.55555556       0.50011218 </v>
    <v>       0.77777778       0.22222222       0.00011218 </v>
    <v>       0.44444444       0.88888889       0.00011218 </v>
    <v>       0.22222222       0.44444444       0.25011218 </v>
    <v>       0.44444444       0.55555556       0.50011218 </v>
    <v>       0.88888889       0.11111111       0.43838781 </v>
    <v>       0.77777778       0.22222222       0.18838781 </v>
    <v>       0.88888889       0.44444444       0.43838781 </v>
    <v>       0.77777778       0.22222222       0.68838781 </v>
    <v>       0.77777778       0.55555556       0.18838781 </v>
    <v>       0.88888889       0.44444444       0.93838781 </v>
    <v>       0.77777778       0.55555556       0.68838781 </v>
    <v>       0.88888889       0.77777778       0.43838781 </v>
    <v>       0.77777778       0.88888889       0.18838781 </v>
    <v>       0.88888889       0.11111111       0.93838781 </v>
    <v>       0.44444444       0.88888889       0.68838781 </v>
    <v>       0.44444444       0.55555556       0.18838781 </v>
    <v>       0.44444444       0.88888889       0.18838781 </v>
    <v>       0.22222222       0.11111111       0.43838781 </v>
    <v>       0.11111111       0.22222222       0.18838781 </v>
    <v>       0.22222222       0.11111111       0.93838781 </v>
    <v>       0.11111111       0.22222222       0.68838781 </v>
    <v>       0.22222222       0.44444444       0.43838781 </v>
    <v>       0.11111111       0.55555556       0.18838781 </v>
    <v>       0.22222222       0.44444444       0.93838781 </v>
    <v>       0.11111111       0.55555556       0.68838781 </v>
    <v>       0.22222222       0.77777778       0.43838781 </v>
    <v>       0.11111111       0.88888889       0.18838781 </v>
    <v>       0.22222222       0.77777778       0.93838781 </v>
    <v>       0.11111111       0.88888889       0.68838781 </v>
    <v>       0.55555556       0.11111111       0.43838781 </v>
    <v>       0.44444444       0.22222222       0.18838781 </v>
    <v>       0.55555556       0.11111111       0.93838781 </v>
    <v>       0.44444444       0.22222222       0.68838781 </v>
    <v>       0.55555556       0.44444444       0.43838781 </v>
    <v>       0.88888889       0.77777778       0.93838781 </v>
    <v>       0.55555556       0.44444444       0.93838781 </v>
    <v>       0.44444444       0.55555556       0.68838781 </v>
    <v>       0.55555556       0.77777778       0.43838781 </v>
    <v>       0.55555556       0.77777778       0.93838781 </v>
    <v>       0.77777778       0.88888889       0.68838781 </v>
   </varray>
  </structure>
  <varray name="forces" >
   <v>      -0.00000000       0.00000000      -0.00463405 </v>
   <v>       0.00000000      -0.00000000      -0.00463405 </v>
   <v>      -0.00000000      -0.00000000      -0.00463405 </v>
   <v>      -0.00000000      -0.00000000      -0.00463405 </v>
   <v>      -0.00000000      -0.00000000      -0.00463405 </v>
   <v>      -0.00000000       0.00000000      -0.00463405 </v>
   <v>       0.00000000      -0.00000000      -0.00463405 </v>
   <v>       0.00000000       0.00000000      -0.00463405 </v>
   <v>       0.00000000      -0.00000000      -0.00463405 </v>
   <v>       0.00000000       0.00000000      -0.00463405 </v>
   <v>      -0.00000000      -0.00000000      -0.00463405 </v>
   <v>      -0.00000000      -0.00000000      -0.00463405 </v>
   <v>       0.00000000      -0.00000000      -0.00463405 </v>
   <v>      -0.00000000      -0.00000000      -0.00463405 </v>
   <v>       0.00000000       0.00000000      -0.00463405 </v>
   <v>      -0.00000000       0.00000000      -0.00463405 </v>
   <v>      -0.00000000       0.00000000      -0.00463405 </v>
   <v>      -0.00000000      -0.00000000      -0.00463405 </v>
   <v>      -0.00000000      -0.00000000      -0.00463405 </v>
   <v>       0.00000000      -0.00000000      -0.00463405 </v>
   <v>      -0.00000000       0.00000000      -0.00463405 </v>
   <v>       0.00000000      -0.00000000      -0.00463405 </v>
   <v>       0.00000000       0.00000000      -0.00463405 </v>
   <v>      -0.00000000      -0.00000000      -0.00463405 </v>
   <v>       0.00000000      -0.00000000      -0.00463405 </v>
   <v>       0.00000000      -0.00000000      -0.00463405 </v>
   <v>      -0.00000000       0.00000000      -0.00463405 </v>
   <v>       0.00000000      -0.00000000      -0.00463405 </v>
   <v>       0.00000000       0.00000000      -0.00463405 </v>
   <v>      -0.00000000       0.00000000      -0.00463405 </v>
   <v>       0.00000000       0.00000000      -0.00463405 </v>
   <v>      -0.00000000       0.00000000      -0.00463405 </v>
   <v>       0.00000000      -0.00000000      -0.00463405 </v>
   <v>       0.00000000      -0.00000000      -0.00463405 </v>
   <v>      -0.00000000       0.00000000      -0.00463405 </v>
   <v>      -0.00000000       0.00000000      -0.00463405 </v>
   <v>       0.00000000      -0.00000000       0.00463405 </v>
   <v>       0.00000000       0.00000000       0.00463405 </v>
   <v>       0.00000000      -0.00000000       0.00463405 </v>
   <v>       0.00000000      -0.00000000       0.00463405 </v>
   <v>       0.00000000       0.00000000       0.00463405 </v>
   <v>      -0.00000000      -0.00000000       0.00463405 </v>
   <v>       0.00000000       0.00000000       0.00463405 </v>
   <v>       0.00000000      -0.00000000       0.00463405 </v>
   <v>      -0.00000000       0.00000000       0.00463405 </v>
   <v>      -0.00000000      -0.00000000       0.00463405 </v>
   <v>       0.00000000       0.00000000       0.00463405 </v>
   <v>      -0.00000000       0.00000000       0.00463405 </v>
   <v>       0.00000000      -0.00000000       0.00463405 </v>
   <v>       0.00000000      -0.00000000       0.00463405 </v>
   <v>      -0.00000000       0.00000000       0.00463405 </v>
   <v>      -0.00000000       0.00000000       0.00463405 </v>
   <v>       0.00000000       0.00000000       0.00463405 </v>
   <v>       0.00000000      -0.00000000       0.00463405 </v>
   <v>      -0.00000000       0.00000000       0.00463405 </v>
   <v>      -0.00000000       0.00000000       0.00463405 </v>
   <v>       0.00000000       0.00000000       0.00463405 </v>
   <v>       0.00000000      -0.00000000       0.00463405 </v>
   <v>      -0.00000000       0.00000000       0.00463405 </v>
   <v>      -0.00000000       0.00000000       0.00463405 </v>
   <v>       0.00000000       0.00000000       0.00463405 </v>
   <v>       0.00000000      -0.00000000       0.00463405 </v>
   <v>      -0.00000000       0.00000000       0.00463405 </v>
   <v>      -0.00000000       0.00000000       0.00463405 </v>
   <v>       0.00000000       0.00000000       0.00463405 </v>
   <v>       0.00000000      -0.00000000       0.00463405 </v>
   <v>      -0.00000000       0.00000000       0.00463405 </v>
   <v>      -0.00000000      -0.00000000       0.00463405 </v>
   <v>       0.00000000       0.00000000       0.00463405 </v>
   <v>       0.00000000       0.00000000       0.00463405 </v>
   <v>      -0.00000000       0.00000000       0.00463405 </v>
   <v>       0.00000000       0.00000000       0.00463405 </v>
  </varray>
  <varray name="stress" >
   <v>     -18.76820620      -0.00000000       0.00000000 </v>
   <v>      -0.00000000     -18.76820620       0.00000000 </v>
   <v>       0.00000000       0.00000000     -18.22126853 </v>
  </varray>
  <energy>
   <i name="e_fr_energy">   -245.14772912 </i>
   <i name="e_wo_entrp">   -245.14772912 </i>
   <i name="e_0_energy">   -245.14772912 </i>
  </energy>
  <time name="totalsc"> 1702.10 1716.56</time>
  <eigenvalues>
   <array>
    <dimension dim="1">band</dimension>
    <dimension dim="2">kpoint</dimension>
    <dimension dim="3">spin</dimension>
    <field>eigene</field>
    <field>occ</field>
    <set>
     <set comment="spin 1">
      <set comment="kpoint 1">
       <r>  -11.2443    1.0000 </r>
       <r>  -11.0311    1.0000 </r>
       <r>  -11.0311    1.0000 </r>
       <r>  -10.9532    1.0000 </r>
       <r>  -10.9532    1.0000 </r>
       <r>  -10.9532    1.0000 </r>
       <r>  -10.9532    1.0000 </r>
       <r>  -10.9532    1.0000 </r>
       <r>  -10.9532    1.0000 </r>
       <r>  -10.8274    1.0000 </r>
       <r>  -10.8274    1.0000 </r>
       <r>  -10.8274    1.0000 </r>
       <r>  -10.8274    1.0000 </r>
       <r>  -10.8274    1.0000 </r>
       <r>  -10.8274    1.0000 </r>
       <r>  -10.8274    1.0000 </r>
       <r>  -10.8274    1.0000 </r>
       <r>  -10.8274    1.0000 </r>
       <r>  -10.8274    1.0000 </r>
       <r>  -10.8274    1.0000 </r>
       <r>  -10.8274    1.0000 </r>
       <r>  -10.8248    1.0000 </r>
       <r>  -10.7388    1.0000 </r>
       <r>  -10.7388    1.0000 </r>
       <r>  -10.7388    1.0000 </r>
       <r>  -10.7388    1.0000 </r>
       <r>  -10.7282    1.0000 </r>
       <r>  -10.7282    1.0000 </r>
       <r>  -10.7282    1.0000 </r>
       <r>  -10.7282    1.0000 </r>
       <r>  -10.7192    1.0000 </r>
       <r>  -10.7192    1.0000 </r>
       <r>  -10.7192    1.0000 </r>
       <r>  -10.7192    1.0000 </r>
       <r>  -10.7192    1.0000 </r>
       <r>  -10.7192    1.0000 </r>
       <r>   -6.6324    1.0000 </r>
       <r>   -6.6254    1.0000 </r>
       <r>   -6.6254    1.0000 </r>
       <r>   -6.5923    1.0000 </r>
       <r>   -6.5923    1.0000 </r>
       <r>   -6.5923    1.0000 </r>
       <r>   -6.5923    1.0000 </r>
       <r>   -6.5652    1.0000 </r>
       <r>   -6.5652    1.0000 </r>
       <r>   -6.5514    1.0000 </r>
       <r>   -6.5514    1.0000 </r>
       <r>   -6.5514    1.0000 </r>
       <r>   -6.5514    1.0000 </r>
       <r>   -6.5514    1.0000 </r>
       <r>   -6.5514    1.0000 </r>
       <r>   -6.5460    1.0000 </r>
       <r>   -6.5460    1.0000 </r>
       <r>   -6.5355    1.0000 </r>
       <r>   -6.5355    1.0000 </r>
       <r>   -6.5355    1.0000 </r>
       <r>   -6.5355    1.0000 </r>
       <r>   -6.5355    1.0000 </r>
       <r>   -6.5355    1.0000 </r>
       <r>   -6.5097    1.0000 </r>
       <r>   -6.5097    1.0000 </r>
       <r>   -6.5097    1.0000 </r>
       <r>   -6.5097    1.0000 </r>
       <r>   -6.5097    1.0000 </r>
       <r>   -6.5097    1.0000 </r>
       <r>   -6.5097    1.0000 </r>
       <r>   -6.5097    1.0000 </r>
       <r>   -6.5097    1.0000 </r>
       <r>   -6.5097    1.0000 </r>
       <r>   -6.5097    1.0000 </r>
       <r>   -6.5097    1.0000 </r>
       <r>   -6.4625    1.0000 </r>
       <r>   -6.4625    1.0000 </r>
       <r>   -6.4625    1.0000 </r>
       <r>   -6.4625    1.0000 </r>
       <r>   -6.4625    1.0000 </r>
       <r>   -6.4625    1.0000 </r>
       <r>   -6.4625    1.0000 </r>
       <r>   -6.4625    1.0000 </r>
       <r>   -6.4625    1.0000 </r>
       <r>   -6.4625    1.0000 </r>
       <r>   -6.4625    1.0000 </r>
       <r>   -6.4625    1.0000 </r>
       <r>   -6.4523    1.0000 </r>
       <r>   -6.4523    1.0000 </r>
       <r>   -6.4523    1.0000 </r>
       <r>   -6.4523    1.0000 </r>
       <r>   -6.4362    1.0000 </r>
       <r>   -6.4362    1.0000 </r>
       <r>   -6.4362    1.0000 </r>
       <r>   -6.4362    1.0000 </r>
       <r>   -6.4178    1.0000 </r>
       <r>   -6.4178    1.0000 </r>
       <r>   -6.4178    1.0000 </r>
       <r>   -6.4178    1.0000 </r>
       <r>   -6.4178    1.0000 </r>
       <r>   -6.4178    1.0000 </r>
       <r>   -6.4155    1.0000 </r>
       <r>   -6.4155    1.0000 </r>
       <r>   -6.3979    1.0000 </r>
       <r>   -6.3979    1.0000 </r>
       <r>   -6.3979    1.0000 </r>
       <r>   -6.3979    1.0000 </r>
       <r>   -6.3920    1.0000 </r>
       <r>   -6.3920    1.0000 </r>
       <r>   -6.3920    1.0000 </r>
       <r>   -6.3920    1.0000 </r>
       <r>   -6.3920    1.0000 </r>
       <r>   -6.3920    1.0000 </r>
       <r>   -6.3373    1.0000 </r>
       <r>   -6.3373    1.0000 </r>
       <r>   -6.3264    1.0000 </r>
       <r>   -6.3264    1.0000 </r>
       <r>   -6.3264    1.0000 </r>
       <r>   -6.3264    1.0000 </r>
       <r>   -6.3264    1.0000 </r>
       <r>   -6.3264    1.0000 </r>
       <r>   -6.3002    1.0000 </r>
       <r>   -6.3002    1.0000 </r>
       <r>   -6.3002    1.0000 </r>
       <r>   -6.3002    1.0000 </r>
       <r>   -6.3002    1.0000 </r>
       <r>   -6.3002    1.0000 </r>
       <r>   -6.3002    1.0000 </r>
       <r>   -6.3002    1.0000 </r>
       <r>   -6.3002    1.0000 </r>
       <r>   -6.3002    1.0000 </r>
       <r>   -6.3002    1.0000 </r>
       <r>   -6.3002    1.0000 </r>
       <r>   -6.2789    1.0000 </r>
       <r>   -6.2789    1.0000 </r>
       <r>   -6.2789    1.0000 </r>
       <r>   -6.2789    1.0000 </r>
       <r>   -6.2789    1.0000 </r>
       <r>   -6.2789    1.0000 </r>
       <r>   -6.2435    1.0000 </r>
       <r>   -6.2435    1.0000 </r>
       <r>   -6.2435    1.0000 </r>
       <r>   -6.2435    1.0000 </r>
       <r>   -6.2322    1.0000 </r>
       <r>   -6.2322    1.0000 </r>
       <r>   -6.2254    1.0000 </r>
       <r>   -6.2254    1.0000 </r>
       <r>   -6.2254    1.0000 </r>
       <r>   -6.2254    1.0000 </r>
       <r>   -6.2182    1.0000 </r>
       <r>   -6.2182    1.0000 </r>
       <r>   -6.2170    1.0000 </r>
       <r>   -6.2170    1.0000 </r>
       <r>   -6.2170    1.0000 </r>
       <r>   -6.2170    1.0000 </r>
       <r>   -6.1983    1.0000 </r>
       <r>   -6.1983    1.0000 </r>
       <r>   -6.1983    1.0000 </r>
       <r>   -6.1983    1.0000 </r>
       <r>   -6.1983    1.0000 </r>
       <r>   -6.1983    1.0000 </r>
       <r>   -6.1833    1.0000 </r>
       <r>   -6.1833    1.0000 </r>
       <r>   -6.1833    1.0000 </r>
       <r>   -6.1833    1.0000 </r>
       <r>   -6.1728    1.0000 </r>
       <r>   -6.1728    1.0000 </r>
       <r>   -6.1728    1.0000 </r>
       <r>   -6.1728    1.0000 </r>
       <r>   -6.1728    1.0000 </r>
       <r>   -6.1728    1.0000 </r>
       <r>   -6.1651    1.0000 </r>
       <r>   -6.1651    1.0000 </r>
       <r>   -6.1651    1.0000 </r>
       <r>   -6.1651    1.0000 </r>
       <r>   -6.1651    1.0000 </r>
       <r>   -6.1651    1.0000 </r>
       <r>   -6.1651    1.0000 </r>
       <r>   -6.1651    1.0000 </r>
       <r>   -6.1651    1.0000 </r>
       <r>   -6.1651    1.0000 </r>
       <r>   -6.1651    1.0000 </r>
       <r>   -6.1651    1.0000 </r>
       <r>   -6.1606    1.0000 </r>
       <r>   -6.1606    1.0000 </r>
       <r>   -6.1445    1.0000 </r>
       <r>   -6.1445    1.0000 </r>
       <r>   -6.1208    1.0000 </r>
       <r>   -6.1208    1.0000 </r>
       <r>   -6.1208    1.0000 </r>
       <r>   -6.1208    1.0000 </r>
       <r>   -6.1208    1.0000 </r>
       <r>   -6.1208    1.0000 </r>
       <r>   -6.0013    1.0000 </r>
       <r>   -6.0013    1.0000 </r>
       <r>   -6.0013    1.0000 </r>
       <r>   -6.0013    1.0000 </r>
       <r>   -6.0013    1.0000 </r>
       <r>   -6.0013    1.0000 </r>
       <r>   -6.0013    1.0000 </r>
       <r>   -6.0013    1.0000 </r>
       <r>   -6.0013    1.0000 </r>
       <r>   -6.0013    1.0000 </r>
       <r>   -6.0013    1.0000 </r>
       <r>   -6.0013    1.0000 </r>
       <r>   -5.8208    1.0000 </r>
       <r>   -5.6902    1.0000 </r>
       <r>   -5.6902    1.0000 </r>
       <r>   -5.6902    1.0000 </r>
       <r>   -5.6902    1.0000 </r>
       <r>   -5.6738    1.0000 </r>
       <r>   -5.6738    1.0000 </r>
       <r>   -5.6738    1.0000 </r>
       <r>   -5.6738    1.0000 </r>
       <r>   -5.6549    1.0000 </r>
       <r>   -5.6549    1.0000 </r>
       <r>   -5.6549    1.0000 </r>
       <r>   -5.6549    1.0000 </r>
       <r>   -5.6549    1.0000 </r>
       <r>   -5.6549    1.0000 </r>
       <r>   -3.3218    1.0000 </r>
       <r>   -2.9888    1.0000 </r>
       <r>   -2.9888    1.0000 </r>
       <r>   -2.9888    1.0000 </r>
       <r>   -2.9888    1.0000 </r>
       <r>   -2.9094    1.0000 </r>
       <r>   -2.9094    1.0000 </r>
       <r>   -2.9094    1.0000 </r>
       <r>   -2.9094    1.0000 </r>
       <r>   -2.9094    1.0000 </r>
       <r>   -2.9094    1.0000 </r>
       <r>   -2.6676    1.0000 </r>
       <r>   -2.6676    1.0000 </r>
       <r>   -2.6676    1.0000 </r>
       <r>   -2.6676    1.0000 </r>
       <r>   -2.4976    1.0000 </r>
       <r>   -2.4976    1.0000 </r>
       <r>   -2.4976    1.0000 </r>
       <r>   -2.4976    1.0000 </r>
       <r>   -2.4976    1.0000 </r>
       <r>   -2.4976    1.0000 </r>
       <r>   -2.4976    1.0000 </r>
       <r>   -2.4976    1.0000 </r>
       <r>   -2.4976    1.0000 </r>
       <r>   -2.4976    1.0000 </r>
       <r>   -2.4976    1.0000 </r>
       <r>   -2.4976    1.0000 </r>
       <r>   -2.0538    1.0000 </r>
       <r>   -2.0538    1.0000 </r>
       <r>   -1.9502    1.0000 </r>
       <r>   -1.9502    1.0000 </r>
       <r>   -1.9502    1.0000 </r>
       <r>   -1.9502    1.0000 </r>
       <r>   -1.9502    1.0000 </r>
       <r>   -1.9502    1.0000 </r>
       <r>   -1.5332    1.0000 </r>
       <r>   -1.5332    1.0000 </r>
       <r>   -1.5332    1.0000 </r>
       <r>   -1.5332    1.0000 </r>
       <r>   -1.5332    1.0000 </r>
       <r>   -1.5332    1.0000 </r>
       <r>   -1.4839    1.0000 </r>
       <r>   -1.4839    1.0000 </r>
       <r>   -1.4048    1.0000 </r>
       <r>   -1.4048    1.0000 </r>
       <r>   -1.4048    1.0000 </r>
       <r>   -1.4048    1.0000 </r>
       <r>   -0.8324    1.0000 </r>
       <r>   -0.8324    1.0000 </r>
       <r>   -0.8324    1.0000 </r>
       <r>   -0.8324    1.0000 </r>
       <r>   -0.6337    1.0000 </r>
       <r>   -0.6337    1.0000 </r>
       <r>   -0.6072    1.0000 </r>
       <r>   -0.6072    1.0000 </r>
       <r>   -0.6072    1.0000 </r>
       <r>   -0.6072    1.0000 </r>
       <r>   -0.6072    1.0000 </r>
       <r>   -0.6072    1.0000 </r>
       <r>   -0.3737    1.0000 </r>
       <r>   -0.3737    1.0000 </r>
       <r>   -0.3737    1.0000 </r>
       <r>   -0.3737    1.0000 </r>
       <r>   -0.3737    1.0000 </r>
       <r>   -0.3737    1.0000 </r>
       <r>   -0.3737    1.0000 </r>
       <r>   -0.3737    1.0000 </r>
       <r>   -0.3737    1.0000 </r>
       <r>   -0.3737    1.0000 </r>
       <r>   -0.3737    1.0000 </r>
       <r>   -0.3737    1.0000 </r>
       <r>   -0.1215    1.0000 </r>
       <r>   -0.1215    1.0000 </r>
       <r>   -0.1215    1.0000 </r>
       <r>   -0.1215    1.0000 </r>
       <r>   -0.1215    1.0000 </r>
       <r>   -0.1215    1.0000 </r>
       <r>   -0.1215    1.0000 </r>
       <r>   -0.1215    1.0000 </r>
       <r>   -0.1215    1.0000 </r>
       <r>   -0.1215    1.0000 </r>
       <r>   -0.1215    1.0000 </r>
       <r>   -0.1215    1.0000 </r>
       <r>   -0.1100    1.0000 </r>
       <r>   -0.1100    1.0000 </r>
       <r>   -0.1100    1.0000 </r>
       <r>   -0.1100    1.0000 </r>
       <r>    0.1739    1.0000 </r>
       <r>    0.1739    1.0000 </r>
       <r>    0.1739    1.0000 </r>
       <r>    0.1739    1.0000 </r>
       <r>    0.1739    1.0000 </r>
       <r>    0.1739    1.0000 </r>
       <r>    0.2388    1.0000 </r>
       <r>    0.2388    1.0000 </r>
       <r>    0.4222    1.0000 </r>
       <r>    0.4222    1.0000 </r>
       <r>    0.4222    1.0000 </r>
       <r>    0.4222    1.0000 </r>
       <r>    0.4222    1.0000 </r>
       <r>    0.4222    1.0000 </r>
       <r>    0.5941    1.0000 </r>
       <r>    0.5941    1.0000 </r>
       <r>    0.5941    1.0000 </r>
       <r>    0.5941    1.0000 </r>
       <r>    0.9344    1.0000 </r>
       <r>    0.9754    1.0000 </r>
       <r>    0.9754    1.0000 </r>
       <r>    1.9991    0.0000 </r>
       <r>    3.6138    0.0000 </r>
       <r>    3.6667    0.0000 </r>
       <r>    3.6667    0.0000 </r>
       <r>    4.2526    0.0000 </r>
       <r>    4.2526    0.0000 </r>
       <r>    4.2526    0.0000 </r>
       <r>    4.2526    0.0000 </r>
       <r>    4.2526    0.0000 </r>
       <r>    4.2526    0.0000 </r>
       <r>    4.5416    0.0000 </r>
       <r>    4.5416    0.0000 </r>
       <r>    4.5416    0.0000 </r>
       <r>    4.5416    0.0000 </r>
       <r>    4.5416    0.0000 </r>
       <r>    4.5416    0.0000 </r>
       <r>    4.5416    0.0000 </r>
       <r>    4.5416    0.0000 </r>
       <r>    4.5416    0.0000 </r>
       <r>    4.5416    0.0000 </r>
       <r>    4.5416    0.0000 </r>
       <r>    4.5416    0.0000 </r>
       <r>    4.8490    0.0000 </r>
       <r>    4.8490    0.0000 </r>
       <r>    4.8490    0.0000 </r>
       <r>    4.8490    0.0000 </r>
       <r>    4.8490    0.0000 </r>
       <r>    4.8490    0.0000 </r>
       <r>    5.2195    0.0000 </r>
       <r>    5.2195    0.0000 </r>
       <r>    5.2195    0.0000 </r>
       <r>    5.2195    0.0000 </r>
       <r>    5.5356    0.0000 </r>
       <r>    5.5356    0.0000 </r>
       <r>    5.9320    0.0000 </r>
       <r>    5.9320    0.0000 </r>
       <r>    5.9320    0.0000 </r>
       <r>    5.9320    0.0000 </r>
       <r>    6.2279    0.0000 </r>
       <r>    6.2279    0.0000 </r>
       <r>    6.2279    0.0000 </r>
       <r>    6.2279    0.0000 </r>
       <r>    6.2279    0.0000 </r>
       <r>    6.2279    0.0000 </r>
       <r>    6.2876    0.0000 </r>
       <r>    6.2876    0.0000 </r>
       <r>    6.2876    0.0000 </r>
       <r>    6.2876    0.0000 </r>
       <r>    6.2876    0.0000 </r>
       <r>    6.2876    0.0000 </r>
       <r>    6.2876    0.0000 </r>
       <r>    6.2876    0.0000 </r>
       <r>    6.2876    0.0000 </r>
       <r>    6.2876    0.0000 </r>
       <r>    6.2876    0.0000 </r>
       <r>    6.2876    0.0000 </r>
       <r>    6.9537    0.0000 </r>
       <r>    6.9537    0.0000 </r>
       <r>    6.9537    0.0000 </r>
       <r>    6.9537    0.0000 </r>
       <r>    7.0130    0.0000 </r>
       <r>    7.0130    0.0000 </r>
       <r>    7.0463    0.0000 </r>
       <r>    7.0463    0.0000 </r>
       <r>    7.0463    0.0000 </r>
       <r>    7.0463    0.0000 </r>
       <r>    7.0463    0.0000 </r>
       <r>    7.0463    0.0000 </r>
       <r>    7.3199    0.0000 </r>
       <r>    7.3199    0.0000 </r>
       <r>    7.3199    0.0000 </r>
       <r>    7.3199    0.0000 </r>
       <r>    7.3546    0.0000 </r>
       <r>    7.3546    0.0000 </r>
       <r>    7.6624    0.0000 </r>
       <r>    7.7051    0.0000 </r>
       <r>    7.7051    0.0000 </r>
       <r>    7.7051    0.0000 </r>
       <r>    7.7051    0.0000 </r>
       <r>    7.9587    0.0000 </r>
       <r>    7.9587    0.0000 </r>
       <r>    7.9696    0.0000 </r>
       <r>    7.9696    0.0000 </r>
       <r>    7.9696    0.0000 </r>
       <r>    7.9696    0.0000 </r>
       <r>    7.9696    0.0000 </r>
       <r>    7.9696    0.0000 </r>
       <r>    8.2567    0.0000 </r>
       <r>    8.2649    0.0000 </r>
       <r>    8.2692    0.0000 </r>
       <r>    8.2759    0.0000 </r>
       <r>    8.2852    0.0000 </r>
      </set>
      <set comment="kpoint 2">
       <r>  -11.2286    1.0000 </r>
       <r>  -11.0352    1.0000 </r>
       <r>  -11.0194    1.0000 </r>
       <r>  -11.0194    1.0000 </r>
       <r>  -10.9861    1.0000 </r>
       <r>  -10.9861    1.0000 </r>
       <r>  -10.9097    1.0000 </r>
       <r>  -10.9097    1.0000 </r>
       <r>  -10.8836    1.0000 </r>
       <r>  -10.8811    1.0000 </r>
       <r>  -10.8811    1.0000 </r>
       <r>  -10.8485    1.0000 </r>
       <r>  -10.8485    1.0000 </r>
       <r>  -10.8485    1.0000 </r>
       <r>  -10.8485    1.0000 </r>
       <r>  -10.8178    1.0000 </r>
       <r>  -10.8007    1.0000 </r>
       <r>  -10.8007    1.0000 </r>
       <r>  -10.8007    1.0000 </r>
       <r>  -10.8007    1.0000 </r>
       <r>  -10.7855    1.0000 </r>
       <r>  -10.7855    1.0000 </r>
       <r>  -10.7715    1.0000 </r>
       <r>  -10.7715    1.0000 </r>
       <r>  -10.7424    1.0000 </r>
       <r>  -10.7338    1.0000 </r>
       <r>  -10.7338    1.0000 </r>
       <r>  -10.7338    1.0000 </r>
       <r>  -10.7338    1.0000 </r>
       <r>  -10.7277    1.0000 </r>
       <r>  -10.7277    1.0000 </r>
       <r>  -10.7170    1.0000 </r>
       <r>  -10.7170    1.0000 </r>
       <r>  -10.7104    1.0000 </r>
       <r>  -10.7104    1.0000 </r>
       <r>  -10.7066    1.0000 </r>
       <r>   -6.6290    1.0000 </r>
       <r>   -6.6190    1.0000 </r>
       <r>   -6.6128    1.0000 </r>
       <r>   -6.5854    1.0000 </r>
       <r>   -6.5854    1.0000 </r>
       <r>   -6.5844    1.0000 </r>
       <r>   -6.5844    1.0000 </r>
       <r>   -6.5686    1.0000 </r>
       <r>   -6.5622    1.0000 </r>
       <r>   -6.5622    1.0000 </r>
       <r>   -6.5537    1.0000 </r>
       <r>   -6.5536    1.0000 </r>
       <r>   -6.5536    1.0000 </r>
       <r>   -6.5455    1.0000 </r>
       <r>   -6.5455    1.0000 </r>
       <r>   -6.5413    1.0000 </r>
       <r>   -6.5413    1.0000 </r>
       <r>   -6.5411    1.0000 </r>
       <r>   -6.5392    1.0000 </r>
       <r>   -6.5373    1.0000 </r>
       <r>   -6.5304    1.0000 </r>
       <r>   -6.5304    1.0000 </r>
       <r>   -6.5244    1.0000 </r>
       <r>   -6.5199    1.0000 </r>
       <r>   -6.5199    1.0000 </r>
       <r>   -6.5099    1.0000 </r>
       <r>   -6.5099    1.0000 </r>
       <r>   -6.5099    1.0000 </r>
       <r>   -6.5099    1.0000 </r>
       <r>   -6.5069    1.0000 </r>
       <r>   -6.5069    1.0000 </r>
       <r>   -6.5033    1.0000 </r>
       <r>   -6.5033    1.0000 </r>
       <r>   -6.5033    1.0000 </r>
       <r>   -6.5033    1.0000 </r>
       <r>   -6.4942    1.0000 </r>
       <r>   -6.4942    1.0000 </r>
       <r>   -6.4751    1.0000 </r>
       <r>   -6.4751    1.0000 </r>
       <r>   -6.4751    1.0000 </r>
       <r>   -6.4751    1.0000 </r>
       <r>   -6.4666    1.0000 </r>
       <r>   -6.4594    1.0000 </r>
       <r>   -6.4594    1.0000 </r>
       <r>   -6.4594    1.0000 </r>
       <r>   -6.4594    1.0000 </r>
       <r>   -6.4490    1.0000 </r>
       <r>   -6.4490    1.0000 </r>
       <r>   -6.4490    1.0000 </r>
       <r>   -6.4490    1.0000 </r>
       <r>   -6.4398    1.0000 </r>
       <r>   -6.4398    1.0000 </r>
       <r>   -6.4349    1.0000 </r>
       <r>   -6.4349    1.0000 </r>
       <r>   -6.4343    1.0000 </r>
       <r>   -6.4343    1.0000 </r>
       <r>   -6.4343    1.0000 </r>
       <r>   -6.4343    1.0000 </r>
       <r>   -6.4335    1.0000 </r>
       <r>   -6.4335    1.0000 </r>
       <r>   -6.4321    1.0000 </r>
       <r>   -6.4137    1.0000 </r>
       <r>   -6.4137    1.0000 </r>
       <r>   -6.4112    1.0000 </r>
       <r>   -6.4112    1.0000 </r>
       <r>   -6.4087    1.0000 </r>
       <r>   -6.3924    1.0000 </r>
       <r>   -6.3924    1.0000 </r>
       <r>   -6.3789    1.0000 </r>
       <r>   -6.3764    1.0000 </r>
       <r>   -6.3764    1.0000 </r>
       <r>   -6.3735    1.0000 </r>
       <r>   -6.3735    1.0000 </r>
       <r>   -6.3615    1.0000 </r>
       <r>   -6.3498    1.0000 </r>
       <r>   -6.3498    1.0000 </r>
       <r>   -6.3392    1.0000 </r>
       <r>   -6.3392    1.0000 </r>
       <r>   -6.3383    1.0000 </r>
       <r>   -6.3383    1.0000 </r>
       <r>   -6.3185    1.0000 </r>
       <r>   -6.3185    1.0000 </r>
       <r>   -6.3185    1.0000 </r>
       <r>   -6.3185    1.0000 </r>
       <r>   -6.3106    1.0000 </r>
       <r>   -6.3060    1.0000 </r>
       <r>   -6.3060    1.0000 </r>
       <r>   -6.2858    1.0000 </r>
       <r>   -6.2858    1.0000 </r>
       <r>   -6.2858    1.0000 </r>
       <r>   -6.2858    1.0000 </r>
       <r>   -6.2745    1.0000 </r>
       <r>   -6.2745    1.0000 </r>
       <r>   -6.2729    1.0000 </r>
       <r>   -6.2729    1.0000 </r>
       <r>   -6.2727    1.0000 </r>
       <r>   -6.2724    1.0000 </r>
       <r>   -6.2699    1.0000 </r>
       <r>   -6.2699    1.0000 </r>
       <r>   -6.2600    1.0000 </r>
       <r>   -6.2600    1.0000 </r>
       <r>   -6.2449    1.0000 </r>
       <r>   -6.2449    1.0000 </r>
       <r>   -6.2449    1.0000 </r>
       <r>   -6.2449    1.0000 </r>
       <r>   -6.2403    1.0000 </r>
       <r>   -6.2403    1.0000 </r>
       <r>   -6.2357    1.0000 </r>
       <r>   -6.2325    1.0000 </r>
       <r>   -6.2160    1.0000 </r>
       <r>   -6.2125    1.0000 </r>
       <r>   -6.2125    1.0000 </r>
       <r>   -6.2094    1.0000 </r>
       <r>   -6.2094    1.0000 </r>
       <r>   -6.1997    1.0000 </r>
       <r>   -6.1972    1.0000 </r>
       <r>   -6.1972    1.0000 </r>
       <r>   -6.1972    1.0000 </r>
       <r>   -6.1972    1.0000 </r>
       <r>   -6.1963    1.0000 </r>
       <r>   -6.1963    1.0000 </r>
       <r>   -6.1914    1.0000 </r>
       <r>   -6.1914    1.0000 </r>
       <r>   -6.1831    1.0000 </r>
       <r>   -6.1831    1.0000 </r>
       <r>   -6.1797    1.0000 </r>
       <r>   -6.1797    1.0000 </r>
       <r>   -6.1791    1.0000 </r>
       <r>   -6.1741    1.0000 </r>
       <r>   -6.1741    1.0000 </r>
       <r>   -6.1712    1.0000 </r>
       <r>   -6.1712    1.0000 </r>
       <r>   -6.1712    1.0000 </r>
       <r>   -6.1712    1.0000 </r>
       <r>   -6.1625    1.0000 </r>
       <r>   -6.1625    1.0000 </r>
       <r>   -6.1625    1.0000 </r>
       <r>   -6.1625    1.0000 </r>
       <r>   -6.1580    1.0000 </r>
       <r>   -6.1580    1.0000 </r>
       <r>   -6.1549    1.0000 </r>
       <r>   -6.1549    1.0000 </r>
       <r>   -6.1521    1.0000 </r>
       <r>   -6.1433    1.0000 </r>
       <r>   -6.1431    1.0000 </r>
       <r>   -6.1431    1.0000 </r>
       <r>   -6.1279    1.0000 </r>
       <r>   -6.1210    1.0000 </r>
       <r>   -6.1210    1.0000 </r>
       <r>   -6.1141    1.0000 </r>
       <r>   -6.0928    1.0000 </r>
       <r>   -6.0928    1.0000 </r>
       <r>   -6.0870    1.0000 </r>
       <r>   -6.0870    1.0000 </r>
       <r>   -6.0513    1.0000 </r>
       <r>   -6.0374    1.0000 </r>
       <r>   -6.0374    1.0000 </r>
       <r>   -6.0374    1.0000 </r>
       <r>   -6.0374    1.0000 </r>
       <r>   -5.9369    1.0000 </r>
       <r>   -5.9369    1.0000 </r>
       <r>   -5.9369    1.0000 </r>
       <r>   -5.9369    1.0000 </r>
       <r>   -5.8974    1.0000 </r>
       <r>   -5.8974    1.0000 </r>
       <r>   -5.8099    1.0000 </r>
       <r>   -5.7720    1.0000 </r>
       <r>   -5.7720    1.0000 </r>
       <r>   -5.6983    1.0000 </r>
       <r>   -5.6983    1.0000 </r>
       <r>   -5.6983    1.0000 </r>
       <r>   -5.6983    1.0000 </r>
       <r>   -5.6929    1.0000 </r>
       <r>   -5.6659    1.0000 </r>
       <r>   -5.6659    1.0000 </r>
       <r>   -5.6519    1.0000 </r>
       <r>   -5.6439    1.0000 </r>
       <r>   -5.6439    1.0000 </r>
       <r>   -5.6410    1.0000 </r>
       <r>   -5.6410    1.0000 </r>
       <r>   -3.2911    1.0000 </r>
       <r>   -3.0005    1.0000 </r>
       <r>   -2.9818    1.0000 </r>
       <r>   -2.9818    1.0000 </r>
       <r>   -2.9818    1.0000 </r>
       <r>   -2.9818    1.0000 </r>
       <r>   -2.9481    1.0000 </r>
       <r>   -2.9350    1.0000 </r>
       <r>   -2.9350    1.0000 </r>
       <r>   -2.9020    1.0000 </r>
       <r>   -2.9020    1.0000 </r>
       <r>   -2.8597    1.0000 </r>
       <r>   -2.8597    1.0000 </r>
       <r>   -2.8042    1.0000 </r>
       <r>   -2.8042    1.0000 </r>
       <r>   -2.6921    1.0000 </r>
       <r>   -2.6921    1.0000 </r>
       <r>   -2.6921    1.0000 </r>
       <r>   -2.6921    1.0000 </r>
       <r>   -2.5471    1.0000 </r>
       <r>   -2.5471    1.0000 </r>
       <r>   -2.3063    1.0000 </r>
       <r>   -2.3063    1.0000 </r>
       <r>   -2.3063    1.0000 </r>
       <r>   -2.3063    1.0000 </r>
       <r>   -2.2585    1.0000 </r>
       <r>   -2.1052    1.0000 </r>
       <r>   -2.1052    1.0000 </r>
       <r>   -2.0893    1.0000 </r>
       <r>   -2.0893    1.0000 </r>
       <r>   -1.9264    1.0000 </r>
       <r>   -1.9264    1.0000 </r>
       <r>   -1.7573    1.0000 </r>
       <r>   -1.7573    1.0000 </r>
       <r>   -1.6739    1.0000 </r>
       <r>   -1.6338    1.0000 </r>
       <r>   -1.6338    1.0000 </r>
       <r>   -1.5539    1.0000 </r>
       <r>   -1.4989    1.0000 </r>
       <r>   -1.4989    1.0000 </r>
       <r>   -1.3780    1.0000 </r>
       <r>   -1.3780    1.0000 </r>
       <r>   -1.3018    1.0000 </r>
       <r>   -1.3018    1.0000 </r>
       <r>   -1.3018    1.0000 </r>
       <r>   -1.3018    1.0000 </r>
       <r>   -1.1025    1.0000 </r>
       <r>   -1.0784    1.0000 </r>
       <r>   -1.0784    1.0000 </r>
       <r>   -0.7945    1.0000 </r>
       <r>   -0.7945    1.0000 </r>
       <r>   -0.7589    1.0000 </r>
       <r>   -0.6000    1.0000 </r>
       <r>   -0.6000    1.0000 </r>
       <r>   -0.5954    1.0000 </r>
       <r>   -0.5954    1.0000 </r>
       <r>   -0.5316    1.0000 </r>
       <r>   -0.5316    1.0000 </r>
       <r>   -0.4219    1.0000 </r>
       <r>   -0.4219    1.0000 </r>
       <r>   -0.4219    1.0000 </r>
       <r>   -0.4219    1.0000 </r>
       <r>   -0.4049    1.0000 </r>
       <r>   -0.3763    1.0000 </r>
       <r>   -0.3763    1.0000 </r>
       <r>   -0.3763    1.0000 </r>
       <r>   -0.3763    1.0000 </r>
       <r>   -0.3495    1.0000 </r>
       <r>   -0.3495    1.0000 </r>
       <r>   -0.3482    1.0000 </r>
       <r>   -0.3482    1.0000 </r>
       <r>   -0.2547    1.0000 </r>
       <r>   -0.2547    1.0000 </r>
       <r>   -0.2197    1.0000 </r>
       <r>   -0.2197    1.0000 </r>
       <r>   -0.2197    1.0000 </r>
       <r>   -0.2197    1.0000 </r>
       <r>   -0.1241    1.0000 </r>
       <r>   -0.1241    1.0000 </r>
       <r>   -0.1241    1.0000 </r>
       <r>   -0.1241    1.0000 </r>
       <r>   -0.1074    1.0000 </r>
       <r>   -0.1074    1.0000 </r>
       <r>   -0.1074    1.0000 </r>
       <r>   -0.1074    1.0000 </r>
       <r>   -0.0853    1.0000 </r>
       <r>    0.0302    1.0000 </r>
       <r>    0.0302    1.0000 </r>
       <r>    0.0403    1.0000 </r>
       <r>    0.0547    1.0000 </r>
       <r>    0.0547    1.0000 </r>
       <r>    0.1822    1.0000 </r>
       <r>    0.2724    1.0000 </r>
       <r>    0.2724    1.0000 </r>
       <r>    0.2954    1.0000 </r>
       <r>    0.2954    1.0000 </r>
       <r>    0.3104    1.0000 </r>
       <r>    0.4120    1.0000 </r>
       <r>    0.4120    1.0000 </r>
       <r>    0.4332    1.0000 </r>
       <r>    0.4409    1.0000 </r>
       <r>    0.4409    1.0000 </r>
       <r>    0.5487    1.0000 </r>
       <r>    0.5487    1.0000 </r>
       <r>    0.5670    1.0000 </r>
       <r>    0.6361    1.0000 </r>
       <r>    0.9042    1.0000 </r>
       <r>    0.9440    1.0000 </r>
       <r>    2.3296    0.0000 </r>
       <r>    3.8085    0.0000 </r>
       <r>    3.8382    0.0000 </r>
       <r>    3.8382    0.0000 </r>
       <r>    3.9090    0.0000 </r>
       <r>    4.1959    0.0000 </r>
       <r>    4.1959    0.0000 </r>
       <r>    4.4081    0.0000 </r>
       <r>    4.4081    0.0000 </r>
       <r>    4.4521    0.0000 </r>
       <r>    4.4806    0.0000 </r>
       <r>    4.4806    0.0000 </r>
       <r>    4.5790    0.0000 </r>
       <r>    4.5790    0.0000 </r>
       <r>    4.5790    0.0000 </r>
       <r>    4.5790    0.0000 </r>
       <r>    4.6461    0.0000 </r>
       <r>    4.6461    0.0000 </r>
       <r>    4.7069    0.0000 </r>
       <r>    4.7069    0.0000 </r>
       <r>    4.7069    0.0000 </r>
       <r>    4.7069    0.0000 </r>
       <r>    4.7803    0.0000 </r>
       <r>    4.8689    0.0000 </r>
       <r>    4.9689    0.0000 </r>
       <r>    4.9689    0.0000 </r>
       <r>    5.0190    0.0000 </r>
       <r>    5.0190    0.0000 </r>
       <r>    5.1596    0.0000 </r>
       <r>    5.1596    0.0000 </r>
       <r>    5.1596    0.0000 </r>
       <r>    5.1596    0.0000 </r>
       <r>    5.5665    0.0000 </r>
       <r>    5.5665    0.0000 </r>
       <r>    5.7061    0.0000 </r>
       <r>    5.7061    0.0000 </r>
       <r>    6.0100    0.0000 </r>
       <r>    6.0100    0.0000 </r>
       <r>    6.0806    0.0000 </r>
       <r>    6.1389    0.0000 </r>
       <r>    6.1389    0.0000 </r>
       <r>    6.2640    0.0000 </r>
       <r>    6.2640    0.0000 </r>
       <r>    6.2661    0.0000 </r>
       <r>    6.2661    0.0000 </r>
       <r>    6.2878    0.0000 </r>
       <r>    6.2878    0.0000 </r>
       <r>    6.2910    0.0000 </r>
       <r>    6.2910    0.0000 </r>
       <r>    6.2910    0.0000 </r>
       <r>    6.2910    0.0000 </r>
       <r>    6.3172    0.0000 </r>
       <r>    6.3172    0.0000 </r>
       <r>    6.3172    0.0000 </r>
       <r>    6.3172    0.0000 </r>
       <r>    6.3386    0.0000 </r>
       <r>    6.8437    0.0000 </r>
       <r>    6.8437    0.0000 </r>
       <r>    6.8841    0.0000 </r>
       <r>    6.8841    0.0000 </r>
       <r>    6.8841    0.0000 </r>
       <r>    6.8841    0.0000 </r>
       <r>    7.0490    0.0000 </r>
       <r>    7.0490    0.0000 </r>
       <r>    7.0559    0.0000 </r>
       <r>    7.0559    0.0000 </r>
       <r>    7.0914    0.0000 </r>
       <r>    7.1729    0.0000 </r>
       <r>    7.1905    0.0000 </r>
       <r>    7.3928    0.0000 </r>
       <r>    7.3928    0.0000 </r>
       <r>    7.3928    0.0000 </r>
       <r>    7.3928    0.0000 </r>
       <r>    7.4260    0.0000 </r>
       <r>    7.6177    0.0000 </r>
       <r>    7.6177    0.0000 </r>
       <r>    7.7284    0.0000 </r>
       <r>    7.7285    0.0000 </r>
       <r>    7.7410    0.0000 </r>
       <r>    7.7647    0.0000 </r>
       <r>    7.7647    0.0000 </r>
       <r>    7.7919    0.0000 </r>
       <r>    7.7919    0.0000 </r>
       <r>    7.8008    0.0000 </r>
       <r>    7.8008    0.0000 </r>
       <r>    7.9409    0.0000 </r>
       <r>    7.9522    0.0000 </r>
       <r>    8.0065    0.0000 </r>
       <r>    8.0091    0.0000 </r>
       <r>    8.0115    0.0000 </r>
       <r>    8.0129    0.0000 </r>
       <r>    8.0264    0.0000 </r>
      </set>
      <set comment="kpoint 3">
       <r>  -11.1838    1.0000 </r>
       <r>  -11.1161    1.0000 </r>
       <r>  -11.0037    1.0000 </r>
       <r>  -11.0037    1.0000 </r>
       <r>  -10.9862    1.0000 </r>
       <r>  -10.9862    1.0000 </r>
       <r>  -10.9373    1.0000 </r>
       <r>  -10.9373    1.0000 </r>
       <r>  -10.8612    1.0000 </r>
       <r>  -10.8612    1.0000 </r>
       <r>  -10.8601    1.0000 </r>
       <r>  -10.8601    1.0000 </r>
       <r>  -10.8601    1.0000 </r>
       <r>  -10.8601    1.0000 </r>
       <r>  -10.8413    1.0000 </r>
       <r>  -10.8135    1.0000 </r>
       <r>  -10.8135    1.0000 </r>
       <r>  -10.7983    1.0000 </r>
       <r>  -10.7732    1.0000 </r>
       <r>  -10.7732    1.0000 </r>
       <r>  -10.7732    1.0000 </r>
       <r>  -10.7732    1.0000 </r>
       <r>  -10.7710    1.0000 </r>
       <r>  -10.7627    1.0000 </r>
       <r>  -10.7627    1.0000 </r>
       <r>  -10.7496    1.0000 </r>
       <r>  -10.7496    1.0000 </r>
       <r>  -10.7496    1.0000 </r>
       <r>  -10.7496    1.0000 </r>
       <r>  -10.7327    1.0000 </r>
       <r>  -10.7327    1.0000 </r>
       <r>  -10.7062    1.0000 </r>
       <r>  -10.7062    1.0000 </r>
       <r>  -10.7049    1.0000 </r>
       <r>  -10.7049    1.0000 </r>
       <r>  -10.7040    1.0000 </r>
       <r>   -6.6136    1.0000 </r>
       <r>   -6.6014    1.0000 </r>
       <r>   -6.5910    1.0000 </r>
       <r>   -6.5802    1.0000 </r>
       <r>   -6.5775    1.0000 </r>
       <r>   -6.5661    1.0000 </r>
       <r>   -6.5661    1.0000 </r>
       <r>   -6.5621    1.0000 </r>
       <r>   -6.5621    1.0000 </r>
       <r>   -6.5565    1.0000 </r>
       <r>   -6.5565    1.0000 </r>
       <r>   -6.5542    1.0000 </r>
       <r>   -6.5542    1.0000 </r>
       <r>   -6.5482    1.0000 </r>
       <r>   -6.5482    1.0000 </r>
       <r>   -6.5443    1.0000 </r>
       <r>   -6.5443    1.0000 </r>
       <r>   -6.5405    1.0000 </r>
       <r>   -6.5405    1.0000 </r>
       <r>   -6.5370    1.0000 </r>
       <r>   -6.5298    1.0000 </r>
       <r>   -6.5298    1.0000 </r>
       <r>   -6.5272    1.0000 </r>
       <r>   -6.5195    1.0000 </r>
       <r>   -6.5176    1.0000 </r>
       <r>   -6.5122    1.0000 </r>
       <r>   -6.5084    1.0000 </r>
       <r>   -6.5084    1.0000 </r>
       <r>   -6.5084    1.0000 </r>
       <r>   -6.5084    1.0000 </r>
       <r>   -6.5083    1.0000 </r>
       <r>   -6.5083    1.0000 </r>
       <r>   -6.5067    1.0000 </r>
       <r>   -6.5067    1.0000 </r>
       <r>   -6.4902    1.0000 </r>
       <r>   -6.4902    1.0000 </r>
       <r>   -6.4902    1.0000 </r>
       <r>   -6.4902    1.0000 </r>
       <r>   -6.4820    1.0000 </r>
       <r>   -6.4820    1.0000 </r>
       <r>   -6.4820    1.0000 </r>
       <r>   -6.4820    1.0000 </r>
       <r>   -6.4781    1.0000 </r>
       <r>   -6.4748    1.0000 </r>
       <r>   -6.4739    1.0000 </r>
       <r>   -6.4739    1.0000 </r>
       <r>   -6.4739    1.0000 </r>
       <r>   -6.4739    1.0000 </r>
       <r>   -6.4729    1.0000 </r>
       <r>   -6.4729    1.0000 </r>
       <r>   -6.4423    1.0000 </r>
       <r>   -6.4423    1.0000 </r>
       <r>   -6.4392    1.0000 </r>
       <r>   -6.4392    1.0000 </r>
       <r>   -6.4392    1.0000 </r>
       <r>   -6.4392    1.0000 </r>
       <r>   -6.4355    1.0000 </r>
       <r>   -6.4355    1.0000 </r>
       <r>   -6.4343    1.0000 </r>
       <r>   -6.4343    1.0000 </r>
       <r>   -6.4343    1.0000 </r>
       <r>   -6.4343    1.0000 </r>
       <r>   -6.4283    1.0000 </r>
       <r>   -6.4283    1.0000 </r>
       <r>   -6.3983    1.0000 </r>
       <r>   -6.3983    1.0000 </r>
       <r>   -6.3743    1.0000 </r>
       <r>   -6.3743    1.0000 </r>
       <r>   -6.3696    1.0000 </r>
       <r>   -6.3696    1.0000 </r>
       <r>   -6.3643    1.0000 </r>
       <r>   -6.3643    1.0000 </r>
       <r>   -6.3616    1.0000 </r>
       <r>   -6.3616    1.0000 </r>
       <r>   -6.3584    1.0000 </r>
       <r>   -6.3584    1.0000 </r>
       <r>   -6.3495    1.0000 </r>
       <r>   -6.3463    1.0000 </r>
       <r>   -6.3463    1.0000 </r>
       <r>   -6.3455    1.0000 </r>
       <r>   -6.3329    1.0000 </r>
       <r>   -6.3329    1.0000 </r>
       <r>   -6.3329    1.0000 </r>
       <r>   -6.3329    1.0000 </r>
       <r>   -6.3228    1.0000 </r>
       <r>   -6.2963    1.0000 </r>
       <r>   -6.2963    1.0000 </r>
       <r>   -6.2811    1.0000 </r>
       <r>   -6.2811    1.0000 </r>
       <r>   -6.2750    1.0000 </r>
       <r>   -6.2750    1.0000 </r>
       <r>   -6.2750    1.0000 </r>
       <r>   -6.2750    1.0000 </r>
       <r>   -6.2705    1.0000 </r>
       <r>   -6.2672    1.0000 </r>
       <r>   -6.2672    1.0000 </r>
       <r>   -6.2627    1.0000 </r>
       <r>   -6.2627    1.0000 </r>
       <r>   -6.2627    1.0000 </r>
       <r>   -6.2627    1.0000 </r>
       <r>   -6.2595    1.0000 </r>
       <r>   -6.2595    1.0000 </r>
       <r>   -6.2591    1.0000 </r>
       <r>   -6.2543    1.0000 </r>
       <r>   -6.2543    1.0000 </r>
       <r>   -6.2454    1.0000 </r>
       <r>   -6.2443    1.0000 </r>
       <r>   -6.2443    1.0000 </r>
       <r>   -6.2320    1.0000 </r>
       <r>   -6.2274    1.0000 </r>
       <r>   -6.2269    1.0000 </r>
       <r>   -6.2269    1.0000 </r>
       <r>   -6.2034    1.0000 </r>
       <r>   -6.2034    1.0000 </r>
       <r>   -6.1975    1.0000 </r>
       <r>   -6.1975    1.0000 </r>
       <r>   -6.1908    1.0000 </r>
       <r>   -6.1908    1.0000 </r>
       <r>   -6.1891    1.0000 </r>
       <r>   -6.1823    1.0000 </r>
       <r>   -6.1823    1.0000 </r>
       <r>   -6.1797    1.0000 </r>
       <r>   -6.1797    1.0000 </r>
       <r>   -6.1782    1.0000 </r>
       <r>   -6.1782    1.0000 </r>
       <r>   -6.1782    1.0000 </r>
       <r>   -6.1782    1.0000 </r>
       <r>   -6.1758    1.0000 </r>
       <r>   -6.1758    1.0000 </r>
       <r>   -6.1758    1.0000 </r>
       <r>   -6.1758    1.0000 </r>
       <r>   -6.1697    1.0000 </r>
       <r>   -6.1670    1.0000 </r>
       <r>   -6.1670    1.0000 </r>
       <r>   -6.1666    1.0000 </r>
       <r>   -6.1666    1.0000 </r>
       <r>   -6.1666    1.0000 </r>
       <r>   -6.1666    1.0000 </r>
       <r>   -6.1665    1.0000 </r>
       <r>   -6.1515    1.0000 </r>
       <r>   -6.1515    1.0000 </r>
       <r>   -6.1479    1.0000 </r>
       <r>   -6.1479    1.0000 </r>
       <r>   -6.1443    1.0000 </r>
       <r>   -6.1443    1.0000 </r>
       <r>   -6.1397    1.0000 </r>
       <r>   -6.1393    1.0000 </r>
       <r>   -6.1393    1.0000 </r>
       <r>   -6.1344    1.0000 </r>
       <r>   -6.1204    1.0000 </r>
       <r>   -6.1204    1.0000 </r>
       <r>   -6.1098    1.0000 </r>
       <r>   -6.0516    1.0000 </r>
       <r>   -6.0516    1.0000 </r>
       <r>   -6.0516    1.0000 </r>
       <r>   -6.0516    1.0000 </r>
       <r>   -5.9994    1.0000 </r>
       <r>   -5.9994    1.0000 </r>
       <r>   -5.8998    1.0000 </r>
       <r>   -5.8825    1.0000 </r>
       <r>   -5.8825    1.0000 </r>
[...]
       <r>   -12.2207     0.0000     0.0000 </r>
       <r>   -12.1491     0.0000     0.0000 </r>
       <r>   -12.0775     0.0000     0.0000 </r>
       <r>   -12.0059     0.0000     0.0000 </r>
       <r>   -11.9343     0.0000     0.0000 </r>
       <r>   -11.8627     0.0000     0.0000 </r>
       <r>   -11.7911     0.0000     0.0000 </r>
       <r>   -11.7195     0.0000     0.0000 </r>
       <r>   -11.6479     0.0000     0.0000 </r>
       <r>   -11.5763     0.0000     0.0000 </r>
       <r>   -11.5047     0.0000     0.0000 </r>
       <r>   -11.4331     0.0000     0.0000 </r>
       <r>   -11.3614     0.0004     0.0000 </r>
       <r>   -11.2898     0.1850     0.0133 </r>
       <r>   -11.2182     4.9049     0.3645 </r>
       <r>   -11.1466    19.2472     1.7428 </r>
       <r>   -11.0750    34.4417     4.2091 </r>
       <r>   -11.0034    52.0958     7.9395 </r>
       <r>   -10.9318    78.4153    13.5547 </r>
       <r>   -10.8602   131.2345    22.9522 </r>
       <r>   -10.7886   234.1512    39.7193 </r>
       <r>   -10.7170   309.2612    61.8650 </r>
       <r>   -10.6454   136.0399    71.6065 </r>
       <r>   -10.5738     5.4864    71.9994 </r>
       <r>   -10.5022     0.0082    72.0000 </r>
       <r>   -10.4305     0.0000    72.0000 </r>
       <r>   -10.3589     0.0000    72.0000 </r>
       <r>   -10.2873     0.0000    72.0000 </r>
       <r>   -10.2157     0.0000    72.0000 </r>
       <r>   -10.1441     0.0000    72.0000 </r>
       <r>   -10.0725     0.0000    72.0000 </r>
       <r>   -10.0009     0.0000    72.0000 </r>
       <r>    -9.9293     0.0000    72.0000 </r>
       <r>    -9.8577     0.0000    72.0000 </r>
       <r>    -9.7861     0.0000    72.0000 </r>
       <r>    -9.7145     0.0000    72.0000 </r>
       <r>    -9.6429     0.0000    72.0000 </r>
       <r>    -9.5712     0.0000    72.0000 </r>
       <r>    -9.4996     0.0000    72.0000 </r>
       <r>    -9.4280     0.0000    72.0000 </r>
       <r>    -9.3564     0.0000    72.0000 </r>
       <r>    -9.2848     0.0000    72.0000 </r>
       <r>    -9.2132     0.0000    72.0000 </r>
       <r>    -9.1416     0.0000    72.0000 </r>
       <r>    -9.0700     0.0000    72.0000 </r>
       <r>    -8.9984     0.0000    72.0000 </r>
       <r>    -8.9268     0.0000    72.0000 </r>
       <r>    -8.8552     0.0000    72.0000 </r>
       <r>    -8.7836     0.0000    72.0000 </r>
       <r>    -8.7119     0.0000    72.0000 </r>
       <r>    -8.6403     0.0000    72.0000 </r>
       <r>    -8.5687     0.0000    72.0000 </r>
       <r>    -8.4971     0.0000    72.0000 </r>
       <r>    -8.4255     0.0000    72.0000 </r>
       <r>    -8.3539     0.0000    72.0000 </r>
       <r>    -8.2823     0.0000    72.0000 </r>
       <r>    -8.2107     0.0000    72.0000 </r>
       <r>    -8.1391     0.0000    72.0000 </r>
       <r>    -8.0675     0.0000    72.0000 </r>
       <r>    -7.9959     0.0000    72.0000 </r>
       <r>    -7.9243     0.0000    72.0000 </r>
       <r>    -7.8526     0.0000    72.0000 </r>
       <r>    -7.7810     0.0000    72.0000 </r>
       <r>    -7.7094     0.0000    72.0000 </r>
       <r>    -7.6378     0.0000    72.0000 </r>
       <r>    -7.5662     0.0000    72.0000 </r>
       <r>    -7.4946     0.0000    72.0000 </r>
       <r>    -7.4230     0.0000    72.0000 </r>
       <r>    -7.3514     0.0000    72.0000 </r>
       <r>    -7.2798     0.0000    72.0000 </r>
       <r>    -7.2082     0.0000    72.0000 </r>
       <r>    -7.1366     0.0000    72.0000 </r>
       <r>    -7.0650     0.0000    72.0000 </r>
       <r>    -6.9933     0.0000    72.0000 </r>
       <r>    -6.9217     0.0000    72.0000 </r>
       <r>    -6.8501     0.0000    72.0000 </r>
       <r>    -6.7785     0.0001    72.0000 </r>
       <r>    -6.7069     0.2565    72.0184 </r>
       <r>    -6.6353    25.4055    73.8376 </r>
       <r>    -6.5637   281.6401    94.0054 </r>
       <r>    -6.4921   716.2253   145.2930 </r>
       <r>    -6.4205   638.7253   191.0309 </r>
       <r>    -6.3489   457.2768   223.7757 </r>
       <r>    -6.2773   458.7602   256.6267 </r>
       <r>    -6.2057   687.5555   305.8613 </r>
       <r>    -6.1341   740.9480   358.9193 </r>
       <r>    -6.0624   276.6757   378.7315 </r>
       <r>    -5.9908    88.4833   385.0676 </r>
       <r>    -5.9192    88.5406   391.4079 </r>
       <r>    -5.8476   111.3836   399.3839 </r>
       <r>    -5.7760   132.7620   408.8907 </r>
       <r>    -5.7044   148.5836   419.5305 </r>
       <r>    -5.6328   133.8179   429.1130 </r>
       <r>    -5.5612    38.8882   431.8977 </r>
       <r>    -5.4896     1.4258   431.9998 </r>
       <r>    -5.4180     0.0030   432.0000 </r>
       <r>    -5.3464     0.0000   432.0000 </r>
       <r>    -5.2748     0.0000   432.0000 </r>
       <r>    -5.2031     0.0000   432.0000 </r>
       <r>    -5.1315     0.0000   432.0000 </r>
       <r>    -5.0599     0.0000   432.0000 </r>
       <r>    -4.9883     0.0000   432.0000 </r>
       <r>    -4.9167     0.0000   432.0000 </r>
       <r>    -4.8451     0.0000   432.0000 </r>
       <r>    -4.7735     0.0000   432.0000 </r>
       <r>    -4.7019     0.0000   432.0000 </r>
       <r>    -4.6303     0.0000   432.0000 </r>
       <r>    -4.5587     0.0000   432.0000 </r>
       <r>    -4.4871     0.0000   432.0000 </r>
       <r>    -4.4155     0.0000   432.0000 </r>
       <r>    -4.3438     0.0000   432.0000 </r>
       <r>    -4.2722     0.0000   432.0000 </r>
       <r>    -4.2006     0.0000   432.0000 </r>
       <r>    -4.1290     0.0000   432.0000 </r>
       <r>    -4.0574     0.0000   432.0000 </r>
       <r>    -3.9858     0.0000   432.0000 </r>
       <r>    -3.9142     0.0000   432.0000 </r>
       <r>    -3.8426     0.0000   432.0000 </r>
       <r>    -3.7710     0.0000   432.0000 </r>
       <r>    -3.6994     0.0000   432.0000 </r>
       <r>    -3.6278     0.0000   432.0000 </r>
       <r>    -3.5562     0.0000   432.0000 </r>
       <r>    -3.4845     0.0000   432.0000 </r>
       <r>    -3.4129     0.0015   432.0001 </r>
       <r>    -3.3413     0.1688   432.0122 </r>
       <r>    -3.2697     1.3378   432.1080 </r>
       <r>    -3.1981     6.4866   432.5725 </r>
       <r>    -3.1265    25.9594   434.4314 </r>
       <r>    -3.0549    53.0222   438.2282 </r>
       <r>    -2.9833    77.4933   443.7774 </r>
       <r>    -2.9117   102.3650   451.1075 </r>
       <r>    -2.8401    97.1926   458.0673 </r>
       <r>    -2.7685    68.4840   462.9713 </r>
       <r>    -2.6969    51.6945   466.6731 </r>
       <r>    -2.6252    40.3515   469.5626 </r>
       <r>    -2.5536    40.3827   472.4543 </r>
       <r>    -2.4820    52.5104   476.2145 </r>
       <r>    -2.4104    44.6626   479.4127 </r>
       <r>    -2.3388    28.3935   481.4459 </r>
       <r>    -2.2672    23.8521   483.1539 </r>
       <r>    -2.1956    21.9969   484.7291 </r>
       <r>    -2.1240    23.9784   486.4461 </r>
       <r>    -2.0524    21.6715   487.9980 </r>
       <r>    -1.9808    20.1797   489.4430 </r>
       <r>    -1.9092    26.4792   491.3392 </r>
       <r>    -1.8376    17.3301   492.5801 </r>
       <r>    -1.7660    16.6495   493.7724 </r>
       <r>    -1.6943    21.9927   495.3472 </r>
       <r>    -1.6227    33.8031   497.7678 </r>
       <r>    -1.5511    45.8206   501.0489 </r>
       <r>    -1.4795    51.9776   504.7710 </r>
       <r>    -1.4079    27.8359   506.7642 </r>
       <r>    -1.3363    43.6328   509.8887 </r>
       <r>    -1.2647    55.2224   513.8431 </r>
       <r>    -1.1931    32.8372   516.1945 </r>
       <r>    -1.1215    35.1631   518.7125 </r>
       <r>    -1.0499    54.0371   522.5820 </r>
       <r>    -0.9783    66.1696   527.3202 </r>
       <r>    -0.9067    62.0624   531.7644 </r>
       <r>    -0.8350    49.2611   535.2919 </r>
       <r>    -0.7634    52.3295   539.0391 </r>
       <r>    -0.6918    76.1273   544.4905 </r>
       <r>    -0.6202    67.0190   549.2896 </r>
       <r>    -0.5486    70.6160   554.3463 </r>
       <r>    -0.4770    67.5690   559.1848 </r>
       <r>    -0.4054    72.3603   564.3664 </r>
       <r>    -0.3338    81.3141   570.1891 </r>
       <r>    -0.2622    91.2496   576.7233 </r>
       <r>    -0.1906    90.4894   583.2031 </r>
       <r>    -0.1190   101.8843   590.4989 </r>
       <r>    -0.0474   115.9494   598.8018 </r>
       <r>     0.0243   106.5829   606.4340 </r>
       <r>     0.0959    96.2743   613.3280 </r>
       <r>     0.1675    74.7188   618.6785 </r>
       <r>     0.2391    75.9593   624.1178 </r>
       <r>     0.3107    62.4430   628.5893 </r>
       <r>     0.3823    53.2535   632.4026 </r>
       <r>     0.4539    45.6501   635.6716 </r>
       <r>     0.5255    36.5315   638.2875 </r>
       <r>     0.5971    38.5848   641.0505 </r>
       <r>     0.6687    25.5291   642.8786 </r>
       <r>     0.7403    27.2201   644.8278 </r>
       <r>     0.8119    18.7171   646.1681 </r>
       <r>     0.8836    15.3012   647.2638 </r>
       <r>     0.9552     8.2153   647.8520 </r>
       <r>     1.0268     1.9939   647.9948 </r>
       <r>     1.0984     0.0721   648.0000 </r>
       <r>     1.1700     0.0001   648.0000 </r>
       <r>     1.2416     0.0000   648.0000 </r>
       <r>     1.3132     0.0000   648.0000 </r>
       <r>     1.3848     0.0000   648.0000 </r>
       <r>     1.4564     0.0000   648.0000 </r>
       <r>     1.5280     0.0000   648.0000 </r>
       <r>     1.5996     0.0000   648.0000 </r>
       <r>     1.6712     0.0000   648.0000 </r>
       <r>     1.7429     0.0000   648.0000 </r>
       <r>     1.8145     0.0000   648.0000 </r>
       <r>     1.8861     0.0002   648.0000 </r>
       <r>     1.9577     0.0268   648.0019 </r>
       <r>     2.0293     0.1525   648.0128 </r>
       <r>     2.1009     0.0436   648.0160 </r>
       <r>     2.1725     0.0116   648.0168 </r>
       <r>     2.2441     0.2342   648.0336 </r>
       <r>     2.3157     0.6587   648.0807 </r>
       <r>     2.3873     0.8165   648.1392 </r>
       <r>     2.4589     0.3940   648.1674 </r>
       <r>     2.5305     1.8321   648.2986 </r>
       <r>     2.6022     0.5206   648.3359 </r>
       <r>     2.6738     0.1995   648.3502 </r>
       <r>     2.7454     0.9800   648.4204 </r>
       <r>     2.8170     1.0436   648.4951 </r>
       <r>     2.8886     4.0787   648.7871 </r>
       <r>     2.9602     2.5383   648.9689 </r>
       <r>     3.0318     1.9071   649.1055 </r>
       <r>     3.1034     0.6730   649.1537 </r>
       <r>     3.1750     1.9041   649.2900 </r>
       <r>     3.2466     2.7322   649.4857 </r>
       <r>     3.3182     6.6285   649.9603 </r>
       <r>     3.3898     4.6150   650.2908 </r>
       <r>     3.4614     2.0268   650.4359 </r>
       <r>     3.5331     4.8323   650.7820 </r>
       <r>     3.6047     7.0576   651.2873 </r>
       <r>     3.6763     6.5363   651.7554 </r>
       <r>     3.7479     4.7116   652.0928 </r>
       <r>     3.8195    11.2330   652.8972 </r>
       <r>     3.8911    17.3755   654.1414 </r>
       <r>     3.9627    18.2025   655.4448 </r>
       <r>     4.0343     6.2229   655.8904 </r>
       <r>     4.1059     7.2080   656.4066 </r>
       <r>     4.1775    32.7196   658.7496 </r>
       <r>     4.2491    51.7167   662.4529 </r>
       <r>     4.3207    40.7868   665.3736 </r>
       <r>     4.3924    28.7453   667.4320 </r>
       <r>     4.4640    30.1778   669.5930 </r>
       <r>     4.5356    39.4986   672.4214 </r>
       <r>     4.6072    46.8482   675.7761 </r>
       <r>     4.6788    51.0447   679.4313 </r>
       <r>     4.7504    40.5552   682.3354 </r>
       <r>     4.8220    38.5761   685.0978 </r>
       <r>     4.8936    55.8326   689.0959 </r>
       <r>     4.9652    65.0181   693.7517 </r>
       <r>     5.0368    68.3177   698.6438 </r>
       <r>     5.1084    41.7393   701.6327 </r>
       <r>     5.1800    22.4053   703.2371 </r>
       <r>     5.2517    27.1537   705.1815 </r>
       <r>     5.3233    41.4175   708.1473 </r>
       <r>     5.3949    49.2361   711.6730 </r>
       <r>     5.4665    17.4527   712.9228 </r>
       <r>     5.5381    14.5599   713.9654 </r>
       <r>     5.6097    19.5589   715.3660 </r>
       <r>     5.6813    15.7066   716.4907 </r>
       <r>     5.7529    30.8842   718.7023 </r>
       <r>     5.8245    19.2057   720.0776 </r>
       <r>     5.8961     7.9332   720.6456 </r>
       <r>     5.9677    11.9181   721.4991 </r>
       <r>     6.0393    22.8054   723.1321 </r>
       <r>     6.1110    24.0693   724.8557 </r>
       <r>     6.1826    35.7041   727.4124 </r>
       <r>     6.2542    81.6435   733.2587 </r>
       <r>     6.3258   109.3289   741.0876 </r>
       <r>     6.3974    93.0819   747.7530 </r>
       <r>     6.4690    78.8138   753.3967 </r>
       <r>     6.5406    67.8467   758.2551 </r>
       <r>     6.6122    68.5407   763.1632 </r>
       <r>     6.6838    68.5921   768.0749 </r>
       <r>     6.7554    56.9740   772.1547 </r>
       <r>     6.8270    46.5314   775.4868 </r>
       <r>     6.8986    35.6987   778.0431 </r>
       <r>     6.9703    34.6949   780.5275 </r>
       <r>     7.0419    34.0792   782.9679 </r>
       <r>     7.1135    34.9529   785.4708 </r>
       <r>     7.1851    21.3693   787.0010 </r>
       <r>     7.2567    14.8854   788.0669 </r>
       <r>     7.3283    18.8703   789.4182 </r>
       <r>     7.3999    31.4909   791.6732 </r>
       <r>     7.4715    31.3713   793.9196 </r>
       <r>     7.5431    41.0790   796.8612 </r>
       <r>     7.6147    52.9296   800.6514 </r>
       <r>     7.6863   103.3117   808.0494 </r>
       <r>     7.7579    99.5786   815.1800 </r>
       <r>     7.8295    73.0148   820.4085 </r>
       <r>     7.9012    65.8256   825.1221 </r>
       <r>     7.9728    54.0762   828.9944 </r>
       <r>     8.0444    25.6752   830.8330 </r>
       <r>     8.1160    10.3957   831.5774 </r>
       <r>     8.1876     3.4064   831.8213 </r>
       <r>     8.2592     1.6347   831.9384 </r>
       <r>     8.3308     0.8028   831.9959 </r>
       <r>     8.4024     0.0572   832.0000 </r>
       <r>     8.4740     0.0002   832.0000 </r>
       <r>     8.5456     0.0000   832.0000 </r>
       <r>     8.6172     0.0000   832.0000 </r>
       <r>     8.6888     0.0000   832.0000 </r>
       <r>     8.7605     0.0000   832.0000 </r>
       <r>     8.8321     0.0000   832.0000 </r>
       <r>     8.9037     0.0000   832.0000 </r>
       <r>     8.9753     0.0000   832.0000 </r>
       <r>     9.0469     0.0000   832.0000 </r>
       <r>     9.1185     0.0000   832.0000 </r>
       <r>     9.1901     0.0000   832.0000 </r>
       <r>     9.2617     0.0000   832.0000 </r>
      </set>
     </set>
    </array>
   </total>
  </dos>
 </calculation>
 <structure name="finalpos" >
  <crystal>
   <varray name="basis" >
    <v>       6.25325715     -10.83095910       0.00000000 </v>
    <v>       6.25325715      10.83095910       0.00000000 </v>
    <v>       0.00000000       0.00000000      13.55923482 </v>
   </varray>
   <i name="volume">   1836.70065798 </i>
   <varray name="rec_basis" >
    <v>       0.07995833      -0.04616396       0.00000000 </v>
    <v>       0.07995833       0.04616396       0.00000000 </v>
    <v>       0.00000000       0.00000000       0.07375047 </v>
   </varray>
  </crystal>
  <varray name="positions" >
   <v>       0.22222222       0.11111111       0.25011218 </v>
   <v>       0.22222222       0.77777778       0.75011218 </v>
   <v>       0.11111111       0.88888889       0.50011218 </v>
   <v>       0.55555556       0.77777778       0.25011218 </v>
   <v>       0.44444444       0.88888889       0.50011218 </v>
   <v>       0.55555556       0.11111111       0.25011218 </v>
   <v>       0.44444444       0.22222222       0.00011218 </v>
   <v>       0.88888889       0.44444444       0.75011218 </v>
   <v>       0.77777778       0.55555556       0.00011218 </v>
   <v>       0.55555556       0.11111111       0.75011218 </v>
   <v>       0.44444444       0.22222222       0.50011218 </v>
   <v>       0.55555556       0.44444444       0.25011218 </v>
   <v>       0.44444444       0.55555556       0.00011218 </v>
   <v>       0.77777778       0.22222222       0.50011218 </v>
   <v>       0.88888889       0.11111111       0.75011218 </v>
   <v>       0.88888889       0.44444444       0.25011218 </v>
   <v>       0.55555556       0.44444444       0.75011218 </v>
   <v>       0.77777778       0.55555556       0.50011218 </v>
   <v>       0.22222222       0.77777778       0.25011218 </v>
   <v>       0.11111111       0.22222222       0.00011218 </v>
   <v>       0.77777778       0.88888889       0.50011218 </v>
   <v>       0.88888889       0.77777778       0.75011218 </v>
   <v>       0.22222222       0.11111111       0.75011218 </v>
   <v>       0.11111111       0.22222222       0.50011218 </v>
   <v>       0.55555556       0.77777778       0.75011218 </v>
   <v>       0.11111111       0.88888889       0.00011218 </v>
   <v>       0.88888889       0.11111111       0.25011218 </v>
   <v>       0.11111111       0.55555556       0.00011218 </v>
   <v>       0.77777778       0.88888889       0.00011218 </v>
   <v>       0.88888889       0.77777778       0.25011218 </v>
   <v>       0.22222222       0.44444444       0.75011218 </v>
   <v>       0.11111111       0.55555556       0.50011218 </v>
   <v>       0.77777778       0.22222222       0.00011218 </v>
   <v>       0.44444444       0.88888889       0.00011218 </v>
   <v>       0.22222222       0.44444444       0.25011218 </v>
   <v>       0.44444444       0.55555556       0.50011218 </v>
   <v>       0.88888889       0.11111111       0.43838781 </v>
   <v>       0.77777778       0.22222222       0.18838781 </v>
   <v>       0.88888889       0.44444444       0.43838781 </v>
   <v>       0.77777778       0.22222222       0.68838781 </v>
   <v>       0.77777778       0.55555556       0.18838781 </v>
   <v>       0.88888889       0.44444444       0.93838781 </v>
   <v>       0.77777778       0.55555556       0.68838781 </v>
   <v>       0.88888889       0.77777778       0.43838781 </v>
   <v>       0.77777778       0.88888889       0.18838781 </v>
   <v>       0.88888889       0.11111111       0.93838781 </v>
   <v>       0.44444444       0.88888889       0.68838781 </v>
   <v>       0.44444444       0.55555556       0.18838781 </v>
   <v>       0.44444444       0.88888889       0.18838781 </v>
   <v>       0.22222222       0.11111111       0.43838781 </v>
   <v>       0.11111111       0.22222222       0.18838781 </v>
   <v>       0.22222222       0.11111111       0.93838781 </v>
   <v>       0.11111111       0.22222222       0.68838781 </v>
   <v>       0.22222222       0.44444444       0.43838781 </v>
   <v>       0.11111111       0.55555556       0.18838781 </v>
   <v>       0.22222222       0.44444444       0.93838781 </v>
   <v>       0.11111111       0.55555556       0.68838781 </v>
   <v>       0.22222222       0.77777778       0.43838781 </v>
   <v>       0.11111111       0.88888889       0.18838781 </v>
   <v>       0.22222222       0.77777778       0.93838781 </v>
   <v>       0.11111111       0.88888889       0.68838781 </v>
   <v>       0.55555556       0.11111111       0.43838781 </v>
   <v>       0.44444444       0.22222222       0.18838781 </v>
   <v>       0.55555556       0.11111111       0.93838781 </v>
   <v>       0.44444444       0.22222222       0.68838781 </v>
   <v>       0.55555556       0.44444444       0.43838781 </v>
   <v>       0.88888889       0.77777778       0.93838781 </v>
   <v>       0.55555556       0.44444444       0.93838781 </v>
   <v>       0.44444444       0.55555556       0.68838781 </v>
   <v>       0.55555556       0.77777778       0.43838781 </v>
   <v>       0.55555556       0.77777778       0.93838781 </v>
   <v>       0.77777778       0.88888889       0.68838781 </v>
  </varray>
 </structure>
</modeling>
