unknown system                          
           1
     6.253257  -10.830959    0.000000
     6.253257   10.830959    0.000000
     0.000000    0.000000   13.559235
   Cd   S 
    36    36
Direct configuration=     1
   0.22222222  0.11111111  0.25011218
   0.22222222  0.77777778  0.75011218
   0.11111111  0.88888889  0.50011218
   0.55555556  0.77777778  0.25011218
   0.44444444  0.88888889  0.50011218
   0.55555556  0.11111111  0.25011218
   0.44444444  0.22222222  0.00011218
   0.88888889  0.44444444  0.75011218
   0.77777778  0.55555556  0.00011218
   0.55555556  0.11111111  0.75011218
   0.44444444  0.22222222  0.50011218
   0.55555556  0.44444444  0.25011218
   0.44444444  0.55555556  0.00011218
   0.77777778  0.22222222  0.50011218
   0.88888889  0.11111111  0.75011218
   0.88888889  0.44444444  0.25011218
   0.55555556  0.44444444  0.75011218
   0.77777778  0.55555556  0.50011218
   0.22222222  0.77777778  0.25011218
   0.11111111  0.22222222  0.00011218
   0.77777778  0.88888889  0.50011218
   0.88888889  0.77777778  0.75011218
   0.22222222  0.11111111  0.75011218
   0.11111111  0.22222222  0.50011218
   0.55555556  0.77777778  0.75011218
   0.11111111  0.88888889  0.00011218
   0.88888889  0.11111111  0.25011218
   0.11111111  0.55555556  0.00011218
   0.77777778  0.88888889  0.00011218
   0.88888889  0.77777778  0.25011218
   0.22222222  0.44444444  0.75011218
   0.11111111  0.55555556  0.50011218
   0.77777778  0.22222222  0.00011218
   0.44444444  0.88888889  0.00011218
   0.22222222  0.44444444  0.25011218
   0.44444444  0.55555556  0.50011218
   0.88888889  0.11111111  0.43838781
   0.77777778  0.22222222  0.18838781
   0.88888889  0.44444444  0.43838781
   0.77777778  0.22222222  0.68838781
   0.77777778  0.55555556  0.18838781
   0.88888889  0.44444444  0.93838781
   0.77777778  0.55555556  0.68838781
   0.88888889  0.77777778  0.43838781
   0.77777778  0.88888889  0.18838781
   0.88888889  0.11111111  0.93838781
   0.44444444  0.88888889  0.68838781
   0.44444444  0.55555556  0.18838781
   0.44444444  0.88888889  0.18838781
   0.22222222  0.11111111  0.43838781
   0.11111111  0.22222222  0.18838781
   0.22222222  0.11111111  0.93838781
   0.11111111  0.22222222  0.68838781
   0.22222222  0.44444444  0.43838781
   0.11111111  0.55555556  0.18838781
   0.22222222  0.44444444  0.93838781
   0.11111111  0.55555556  0.68838781
   0.22222222  0.77777778  0.43838781
   0.11111111  0.88888889  0.18838781
   0.22222222  0.77777778  0.93838781
   0.11111111  0.88888889  0.68838781
   0.55555556  0.11111111  0.43838781
   0.44444444  0.22222222  0.18838781
   0.55555556  0.11111111  0.93838781
   0.44444444  0.22222222  0.68838781
   0.55555556  0.44444444  0.43838781
   0.88888889  0.77777778  0.93838781
   0.55555556  0.44444444  0.93838781
   0.44444444  0.55555556  0.68838781
   0.55555556  0.77777778  0.43838781
   0.55555556  0.77777778  0.93838781
   0.77777778  0.88888889  0.68838781
