72
Lattice="12.39778545 0.0 0.0 -6.19889272 10.73679715 0.0 0.0 0.0 13.44794642" Properties=species:S:1:pos:R:3:forces:R:3 ref_energy_eV=-266.71317979 ref_gap_eV=2.1837 energy=-240.01731273 stress="-0.0026731180223198525 0.0007227970031305054 -0.00029813837238586676 0.0007227970031305054 -0.00929773579679487 -0.0014488076469627638 -0.00029813837238586676 -0.0014488076469627638 -0.011855159121293302" free_energy=-240.01731273 pbc="T T T"
Cd      -0.05538184       2.57577857       0.05095212      -0.02212123      -1.74569875       0.01857648
Cd       4.13754920       2.37533696      13.39709516       0.77939296       1.02531181       0.24065474
Cd       8.19715371       2.50626683       0.17190806      -0.00076929      -1.26487025      -1.35952018
Cd      -2.06398716       5.95602499      13.37790521      -0.50900310       0.36845513       0.14013074
Cd       2.04608941       5.99552577       0.02482168       0.48533446       0.20409166      -0.08820297
Cd       6.24079675       5.93796269       0.02051377      -0.08512913       0.07429114       0.47934497
Cd      -4.12812787       9.52101324       0.00268555       0.01770959       0.20225671      -0.21364169
Cd      -0.01401929       9.55242020       0.06320427       0.09240124      -0.33710863      -1.06272630
Cd       4.12817481       9.68621400       0.11077907      -0.49070710      -0.27038386      -0.31345825
Cd      -0.06536088       2.50286080       6.68967637      -0.04816726      -1.30322564       0.35387004
Cd       3.96210448       2.23688864       6.74863594       1.56167561       0.96517270       0.21315364
Cd       8.16888757       2.57882492       6.75570848       0.27413236      -0.90854712       0.00839992
Cd      -1.95388931       5.90705585       6.63094637      -1.14789290       0.28794267       0.58271663
Cd       2.02271463       5.91670437       6.76332244       0.94560099       0.54823680       0.37038604
Cd       6.20349460       6.03801858       6.66477468      -0.77616329      -0.67391868       0.56987115
Cd      -4.05685524       9.51789914       6.85447235      -0.43719233       0.33851898      -0.00763928
Cd       0.01220364       9.53739104       6.72409707      -0.66918877       0.89048937       0.49558717
Cd       4.18207616       9.49388984       6.49495280       0.20277153       0.04111112       0.56726573
Cd       2.06029108       1.19003320       3.34385299      -0.17163019      -0.34358391       0.03959503
Cd       6.21799083       1.16639185       3.24451557      -0.29854681       0.89425555       0.48400012
Cd      10.34015823       1.11878307       3.38790241       0.12011833       0.92116205      -0.74113772
Cd       0.01151240       4.81025466       3.60363733      -0.08129701      -0.14022110      -2.33975335
Cd       4.13424228       4.77644330       3.35986654      -0.98856367      -0.33131652      -0.00366323
Cd       8.27172559       4.88172533       3.31763716       0.27761293      -0.69218116       0.33002505
Cd      -2.06690151       8.35063976       3.36383207       0.53055195       0.06463045       0.15723189
Cd       2.13822939       8.25256180       3.52624466      -0.26346023       1.30010692      -1.27324035
Cd       6.10511266       8.30597704       3.30212832       0.34142695      -0.11274126      -0.21752817
Cd       2.15486176       1.11060109      10.26825063      -0.51658384       0.06477175      -1.06692121
Cd       6.16313875       1.14489496      10.14466548      -0.09141012       0.33974701      -0.14537339
Cd      10.17819938       1.07873116      10.07969307       0.43224530       1.97844791       0.48723160
Cd      -0.13836629       4.57994263      10.08460561       0.39892590       1.78078953       0.67528025
Cd       4.30115863       4.73733473      10.23210806      -0.94653901      -0.26428670      -2.17511378
Cd       8.15118651       4.78635465      10.03847027       1.12125222      -0.34947067       0.43993484
Cd      -2.07996890       8.33316605      10.08326512       1.52790629      -1.16031909      -0.75464958
Cd       2.17297523       8.42459997      10.00823687      -0.69264204      -0.17979220       0.49587236
Cd       6.24173700       8.29447063      10.13972578       0.03691912       0.26008858       0.35635467
S        0.01210260       2.41631942       2.52479815      -0.22459795       0.07179332       0.55082683
S        3.98162151       2.42378633       2.41078296       0.76151292       0.06261829       0.60537620
S        8.30913423       2.42624978       2.48022695      -0.00841339      -0.03193435       1.77336345
S       -2.07147524       5.95415925       2.54801562       0.49241523       0.16543664      -0.19714317
S        1.94580230       6.15088776       2.57906828       0.31621297      -1.93123787      -0.58447873
S        6.16520274       5.82503542       2.64685870      -0.01869640       1.05508206      -0.98071748
S       -4.11298739       9.44226774       2.54959764      -0.46099819       0.49644800      -0.15508624
S        0.05756243       9.63798903       2.43975885      -0.23358667      -1.06331017       1.16613140
S        4.07233555       9.57843460       2.60980168       0.17481192      -0.64914206      -0.24302039
S        0.00377048       2.43860590       9.24972926       0.04960059      -1.98618024      -0.43558080
S        4.02364852       2.34524515       9.23833078       0.74293717       0.41386826       0.19198772
S        8.26470596       2.40522466       9.24613422      -0.41776064      -0.07790297       0.11940671
S       -2.07014930       5.95132603       9.23953033      -0.19757538      -0.24004536      -0.16477642
S        2.05187571       6.07419622       9.29058587       0.04876169      -0.90522781      -0.07001556
S        6.21718671       5.92147623       9.27463741      -0.47278620       0.86882312      -0.79535116
S       -3.93302659       9.46043376       9.37839248      -2.51831350       1.05935772      -0.79158791
S       -0.04034623       9.53125561       9.32971925       0.56804086       0.06470760      -0.65123800
S        4.17842316       9.64069836       9.44209110       0.89739468      -1.83854675      -1.68610698
S        2.08164880       1.18593465       5.90839197      -1.63154108      -0.80233345      -0.53164813
S        6.21347203       1.31930371       5.87562229      -0.46134786      -0.64938200      -0.24867325
S       10.26839904       1.15402757       5.77003883       0.14545859       0.63707497       1.45520197
S        0.04612671       4.77399918       5.90062081      -0.00811496       0.12571039       1.04748448
S        4.13358483       4.73426852       5.84131321      -0.31408622       0.11730407       0.63121847
S        8.12372603       4.80631651       5.87053977       1.36543124       0.42353236      -0.31945347
S       -2.10288404       8.33891077       5.97427777       0.58041874      -0.18028243      -0.56937626
S        1.97009353       8.49504667       5.81097370       0.69897130      -0.82969606       1.74865108
S        6.33188092       8.26424955       5.81748520      -0.37412325       1.19661748       0.22427516
S        2.18948307       1.38107540      12.61083865      -1.99944861      -1.17291089       0.80861003
S        6.11951460       1.17974134      12.67626399       0.87900717       0.09710378      -0.30431261
S       10.27740262       1.22608791      12.59587539       0.15069802       0.54080342       0.39460737
S        0.00273049       4.78006182      12.77485142       0.08356997       1.06007710      -1.31883325
S        4.23804516       4.83689695      12.49955205      -0.79140283      -0.17510182       2.48342622
S        8.18493706       4.66371391      12.64960289       0.62579764       1.24253855      -0.73381078
S       -2.05450149       8.38068088      12.40917957      -0.12324323      -0.25458854       2.37466485
S        2.08034679       8.35495573      12.61256147       0.01953311       0.27863226       0.06192451
S        6.07174247       8.31856218      12.79716788       0.74649215       0.33808107      -0.59885945
