  72  72   0   0
  0.2550973E+02  0.1250651E-08  0.1250651E-08  0.1355924E-08  0.5000000E-15
  1.000000000000000E-004
  CAR 
 unknown system                          
      9.50398347    -12.11109491  301      1.29475683      1.00000000
    -12.111  0.0000E+00  0.0000E+00
    -12.039  0.0000E+00  0.0000E+00
    -11.967  0.0000E+00  0.0000E+00
    -11.895  0.0000E+00  0.0000E+00
    -11.823  0.0000E+00  0.0000E+00
    -11.751  0.0000E+00  0.0000E+00
    -11.679  0.0000E+00  0.0000E+00
    -11.607  0.0000E+00  0.0000E+00
    -11.535  0.0000E+00  0.0000E+00
    -11.463  0.0000E+00  0.0000E+00
    -11.391  0.2057E-13  0.1482E-14
    -11.319  0.1788E-07  0.1288E-08
    -11.246  0.3469E-03  0.2500E-04
    -11.174  0.1884E+00  0.1360E-01
    -11.102  0.5124E+01  0.3828E+00
    -11.030  0.2027E+02  0.1843E+01
    -10.958  0.3656E+02  0.4478E+01
    -10.886  0.5603E+02  0.8515E+01
    -10.814  0.8643E+02  0.1474E+02
    -10.742  0.1519E+03  0.2569E+02
    -10.670  0.2658E+03  0.4484E+02
    -10.598  0.2990E+03  0.6638E+02
    -10.526  0.7674E+02  0.7191E+02
    -10.454  0.1306E+01  0.7200E+02
    -10.382  0.6671E-03  0.7200E+02
    -10.310  0.7242E-08  0.7200E+02
    -10.238  0.0000E+00  0.7200E+02
    -10.166  0.0000E+00  0.7200E+02
    -10.094  0.0000E+00  0.7200E+02
    -10.022  0.0000E+00  0.7200E+02
     -9.950  0.0000E+00  0.7200E+02
     -9.878  0.0000E+00  0.7200E+02
     -9.805  0.0000E+00  0.7200E+02
     -9.733  0.0000E+00  0.7200E+02
     -9.661  0.0000E+00  0.7200E+02
     -9.589  0.0000E+00  0.7200E+02
     -9.517  0.0000E+00  0.7200E+02
     -9.445  0.0000E+00  0.7200E+02
     -9.373  0.0000E+00  0.7200E+02
     -9.301  0.0000E+00  0.7200E+02
     -9.229  0.0000E+00  0.7200E+02
     -9.157  0.0000E+00  0.7200E+02
     -9.085  0.0000E+00  0.7200E+02
     -9.013  0.0000E+00  0.7200E+02
     -8.941  0.0000E+00  0.7200E+02
     -8.869  0.0000E+00  0.7200E+02
     -8.797  0.0000E+00  0.7200E+02
     -8.725  0.0000E+00  0.7200E+02
     -8.653  0.0000E+00  0.7200E+02
     -8.581  0.0000E+00  0.7200E+02
     -8.509  0.0000E+00  0.7200E+02
     -8.437  0.0000E+00  0.7200E+02
     -8.364  0.0000E+00  0.7200E+02
     -8.292  0.0000E+00  0.7200E+02
     -8.220  0.0000E+00  0.7200E+02
     -8.148  0.0000E+00  0.7200E+02
     -8.076  0.0000E+00  0.7200E+02
     -8.004  0.0000E+00  0.7200E+02
     -7.932  0.0000E+00  0.7200E+02
     -7.860  0.0000E+00  0.7200E+02
     -7.788  0.0000E+00  0.7200E+02
     -7.716  0.0000E+00  0.7200E+02
     -7.644  0.0000E+00  0.7200E+02
     -7.572  0.0000E+00  0.7200E+02
     -7.500  0.0000E+00  0.7200E+02
     -7.428  0.0000E+00  0.7200E+02
     -7.356  0.0000E+00  0.7200E+02
     -7.284  0.0000E+00  0.7200E+02
     -7.212  0.0000E+00  0.7200E+02
     -7.140  0.0000E+00  0.7200E+02
     -7.068  0.0000E+00  0.7200E+02
     -6.996  0.0000E+00  0.7200E+02
     -6.923  0.0000E+00  0.7200E+02
     -6.851  0.0000E+00  0.7200E+02
     -6.779  0.3149E-11  0.7200E+02
     -6.707  0.1535E-05  0.7200E+02
     -6.635  0.1673E-01  0.7200E+02
     -6.563  0.5665E+01  0.7241E+02
     -6.491  0.1338E+03  0.8205E+02
     -6.419  0.5903E+03  0.1246E+03
     -6.347  0.7174E+03  0.1763E+03
     -6.275  0.5201E+03  0.2137E+03
     -6.203  0.4251E+03  0.2444E+03
     -6.131  0.6470E+03  0.2910E+03
     -6.059  0.7927E+03  0.3481E+03
     -5.987  0.3911E+03  0.3763E+03
     -5.915  0.9905E+02  0.3834E+03
     -5.843  0.8732E+02  0.3897E+03
     -5.771  0.1049E+03  0.3973E+03
     -5.699  0.1327E+03  0.4068E+03
     -5.627  0.1488E+03  0.4175E+03
     -5.555  0.1454E+03  0.4280E+03
     -5.482  0.5258E+02  0.4318E+03
     -5.410  0.2586E+01  0.4320E+03
     -5.338  0.7624E-02  0.4320E+03
     -5.266  0.7053E-06  0.4320E+03
     -5.194  0.1430E-11  0.4320E+03
     -5.122  0.0000E+00  0.4320E+03
     -5.050  0.0000E+00  0.4320E+03
     -4.978  0.0000E+00  0.4320E+03
     -4.906  0.0000E+00  0.4320E+03
     -4.834  0.0000E+00  0.4320E+03
     -4.762  0.0000E+00  0.4320E+03
     -4.690  0.0000E+00  0.4320E+03
     -4.618  0.0000E+00  0.4320E+03
     -4.546  0.0000E+00  0.4320E+03
     -4.474  0.0000E+00  0.4320E+03
     -4.402  0.0000E+00  0.4320E+03
     -4.330  0.0000E+00  0.4320E+03
     -4.258  0.0000E+00  0.4320E+03
     -4.186  0.0000E+00  0.4320E+03
     -4.114  0.0000E+00  0.4320E+03
     -4.041  0.0000E+00  0.4320E+03
     -3.969  0.0000E+00  0.4320E+03
     -3.897  0.0000E+00  0.4320E+03
     -3.825  0.0000E+00  0.4320E+03
     -3.753  0.0000E+00  0.4320E+03
     -3.681  0.0000E+00  0.4320E+03
     -3.609  0.0000E+00  0.4320E+03
     -3.537  0.0000E+00  0.4320E+03
     -3.465  0.0000E+00  0.4320E+03
     -3.393  0.1653E-12  0.4320E+03
     -3.321  0.5456E-07  0.4320E+03
     -3.249  0.3767E-03  0.4320E+03
     -3.177  0.8368E-01  0.4320E+03
     -3.105  0.1059E+01  0.4321E+03
     -3.033  0.5272E+01  0.4325E+03
     -2.961  0.2380E+02  0.4342E+03
     -2.889  0.5224E+02  0.4379E+03
     -2.817  0.7755E+02  0.4435E+03
     -2.745  0.1037E+03  0.4510E+03
     -2.673  0.9909E+02  0.4581E+03
     -2.600  0.6929E+02  0.4631E+03
     -2.528  0.5221E+02  0.4669E+03
     -2.456  0.3999E+02  0.4698E+03
     -2.384  0.4264E+02  0.4728E+03
     -2.312  0.5325E+02  0.4767E+03
     -2.240  0.4261E+02  0.4798E+03
     -2.168  0.2775E+02  0.4818E+03
     -2.096  0.2281E+02  0.4834E+03
     -2.024  0.2366E+02  0.4851E+03
     -1.952  0.2342E+02  0.4868E+03
     -1.880  0.2104E+02  0.4883E+03
     -1.808  0.2120E+02  0.4898E+03
     -1.736  0.2578E+02  0.4917E+03
     -1.664  0.1540E+02  0.4928E+03
     -1.592  0.1869E+02  0.4941E+03
     -1.520  0.2389E+02  0.4959E+03
     -1.448  0.3771E+02  0.4986E+03
     -1.376  0.5079E+02  0.5022E+03
     -1.304  0.4456E+02  0.5055E+03
     -1.232  0.3047E+02  0.5077E+03
     -1.159  0.5166E+02  0.5114E+03
     -1.087  0.4850E+02  0.5149E+03
     -1.015  0.3096E+02  0.5171E+03
     -0.943  0.4437E+02  0.5203E+03
     -0.871  0.6032E+02  0.5246E+03
     -0.799  0.7021E+02  0.5297E+03
     -0.727  0.5521E+02  0.5337E+03
     -0.655  0.4972E+02  0.5373E+03
     -0.583  0.6743E+02  0.5421E+03
     -0.511  0.7481E+02  0.5475E+03
     -0.439  0.6965E+02  0.5525E+03
     -0.367  0.6986E+02  0.5576E+03
     -0.295  0.7088E+02  0.5627E+03
     -0.223  0.8108E+02  0.5685E+03
     -0.151  0.9124E+02  0.5751E+03
     -0.079  0.9142E+02  0.5817E+03
     -0.007  0.1032E+03  0.5891E+03
      0.065  0.1165E+03  0.5975E+03
      0.137  0.1099E+03  0.6054E+03
      0.209  0.1002E+03  0.6126E+03
      0.282  0.7788E+02  0.6183E+03
      0.354  0.7784E+02  0.6239E+03
      0.426  0.6406E+02  0.6285E+03
      0.498  0.5461E+02  0.6324E+03
      0.570  0.4582E+02  0.6357E+03
      0.642  0.3794E+02  0.6384E+03
      0.714  0.3822E+02  0.6412E+03
      0.786  0.2631E+02  0.6431E+03
      0.858  0.2685E+02  0.6450E+03
      0.930  0.1860E+02  0.6464E+03
      1.002  0.1453E+02  0.6474E+03
      1.074  0.6852E+01  0.6479E+03
      1.146  0.1196E+01  0.6480E+03
      1.218  0.2339E-01  0.6480E+03
      1.290  0.2101E-04  0.6480E+03
      1.362  0.4851E-09  0.6480E+03
      1.434  0.1972E-15  0.6480E+03
      1.506  0.0000E+00  0.6480E+03
      1.578  0.0000E+00  0.6480E+03
      1.651  0.0000E+00  0.6480E+03
      1.723  0.0000E+00  0.6480E+03
      1.795  0.0000E+00  0.6480E+03
      1.867  0.0000E+00  0.6480E+03
      1.939  0.0000E+00  0.6480E+03
      2.011  0.1202E-10  0.6480E+03
      2.083  0.1111E-05  0.6480E+03
      2.155  0.1926E-02  0.6480E+03
      2.227  0.7945E-01  0.6480E+03
      2.299  0.1307E+00  0.6480E+03
      2.371  0.1177E-01  0.6480E+03
      2.443  0.1212E+00  0.6480E+03
      2.515  0.5241E+00  0.6481E+03
      2.587  0.9530E+00  0.6481E+03
      2.659  0.3483E+00  0.6482E+03
      2.731  0.1692E+01  0.6483E+03
      2.803  0.7885E+00  0.6483E+03
      2.875  0.1560E+00  0.6483E+03
      2.947  0.9215E+00  0.6484E+03
      3.019  0.1045E+01  0.6485E+03
      3.092  0.3912E+01  0.6488E+03
      3.164  0.2707E+01  0.6490E+03
      3.236  0.1914E+01  0.6491E+03
      3.308  0.6938E+00  0.6492E+03
      3.380  0.1925E+01  0.6493E+03
      3.452  0.2772E+01  0.6495E+03
      3.524  0.6644E+01  0.6500E+03
      3.596  0.4514E+01  0.6503E+03
      3.668  0.2005E+01  0.6504E+03
      3.740  0.5054E+01  0.6508E+03
      3.812  0.6843E+01  0.6513E+03
      3.884  0.6266E+01  0.6517E+03
      3.956  0.5031E+01  0.6521E+03
      4.028  0.1088E+02  0.6529E+03
      4.100  0.1747E+02  0.6542E+03
      4.172  0.1825E+02  0.6555E+03
      4.244  0.5857E+01  0.6559E+03
      4.316  0.5828E+01  0.6563E+03
      4.388  0.3302E+02  0.6587E+03
      4.460  0.4937E+02  0.6622E+03
      4.533  0.4081E+02  0.6652E+03
      4.605  0.2991E+02  0.6673E+03
      4.677  0.3118E+02  0.6696E+03
      4.749  0.3950E+02  0.6724E+03
      4.821  0.5070E+02  0.6761E+03
      4.893  0.4932E+02  0.6796E+03
      4.965  0.3836E+02  0.6824E+03
      5.037  0.3936E+02  0.6852E+03
      5.109  0.5832E+02  0.6894E+03
      5.181  0.6984E+02  0.6945E+03
      5.253  0.6776E+02  0.6994E+03
      5.325  0.3583E+02  0.7019E+03
      5.397  0.2437E+02  0.7037E+03
      5.469  0.2954E+02  0.7058E+03
      5.541  0.5013E+02  0.7094E+03
      5.613  0.4081E+02  0.7124E+03
      5.685  0.1101E+02  0.7132E+03
      5.757  0.1911E+02  0.7145E+03
      5.829  0.1719E+02  0.7158E+03
      5.901  0.2048E+02  0.7173E+03
      5.974  0.2955E+02  0.7194E+03
      6.046  0.1044E+02  0.7201E+03
      6.118  0.7330E+01  0.7207E+03
      6.190  0.1468E+02  0.7217E+03
      6.262  0.2027E+02  0.7232E+03
      6.334  0.2202E+02  0.7248E+03
      6.406  0.3620E+02  0.7274E+03
      6.478  0.8072E+02  0.7332E+03
      6.550  0.1124E+03  0.7413E+03
      6.622  0.9302E+02  0.7480E+03
      6.694  0.8275E+02  0.7540E+03
      6.766  0.6683E+02  0.7588E+03
      6.838  0.6961E+02  0.7638E+03
      6.910  0.6741E+02  0.7687E+03
      6.982  0.5268E+02  0.7724E+03
      7.054  0.4228E+02  0.7755E+03
      7.126  0.3724E+02  0.7782E+03
      7.198  0.3656E+02  0.7808E+03
      7.270  0.3277E+02  0.7832E+03
      7.342  0.3359E+02  0.7856E+03
      7.415  0.2093E+02  0.7871E+03
      7.487  0.1349E+02  0.7881E+03
      7.559  0.2175E+02  0.7896E+03
      7.631  0.3342E+02  0.7920E+03
      7.703  0.3163E+02  0.7943E+03
      7.775  0.4036E+02  0.7972E+03
      7.847  0.5985E+02  0.8015E+03
      7.919  0.1093E+03  0.8094E+03
      7.991  0.9988E+02  0.8166E+03
      8.063  0.6965E+02  0.8216E+03
      8.135  0.6187E+02  0.8261E+03
      8.207  0.5031E+02  0.8297E+03
      8.279  0.1922E+02  0.8311E+03
      8.351  0.8240E+01  0.8317E+03
      8.423  0.2510E+01  0.8319E+03
      8.495  0.9977E+00  0.8320E+03
      8.567  0.6064E+00  0.8320E+03
      8.639  0.3409E-01  0.8320E+03
      8.711  0.1055E-03  0.8320E+03
      8.783  0.8828E-08  0.8320E+03
      8.856  0.1403E-13  0.8320E+03
      8.928  0.0000E+00  0.8320E+03
      9.000  0.0000E+00  0.8320E+03
      9.072  0.0000E+00  0.8320E+03
      9.144  0.0000E+00  0.8320E+03
      9.216  0.0000E+00  0.8320E+03
      9.288  0.0000E+00  0.8320E+03
      9.360  0.0000E+00  0.8320E+03
      9.432  0.0000E+00  0.8320E+03
      9.504  0.0000E+00  0.8320E+03
