 vasp.6.4.2 20Jul23 (build Sep 17 2025 15:35:10) complex                        
  
 executed on             LinuxIFC date 2025.10.09  12:27:15
 running   32 mpi-ranks, on    1 nodes
 distrk:  each k-point on   32 cores,    1 groups
 distr:  one band on NCORE=   1 cores,   32 groups


--------------------------------------------------------------------------------------------------------


 INCAR:
   YSTEM = CdS Calculation
   PREC = Accurate
   ENCUT = 400
   ISTART = 0
   ICHARG = 2
   ISMEAR = 0
   SIGMA = 0.05
   EDIFF = 1E-6
   NELM = 100
   LREAL = .FALSE.
   GGA = PE
   LWAVE = .FALSE.
   LCHARG = .FALSE.

 POTCAR:    PAW_PBE Cd 06Sep2000                  
 POTCAR:    PAW_PBE S 06Sep2000                   
 -----------------------------------------------------------------------------
|                                                                             |
|           W    W    AA    RRRRR   N    N  II  N    N   GGGG   !!!           |
|           W    W   A  A   R    R  NN   N  II  NN   N  G    G  !!!           |
|           W    W  A    A  R    R  N N  N  II  N N  N  G       !!!           |
|           W WW W  AAAAAA  RRRRR   N  N N  II  N  N N  G  GGG   !            |
|           WW  WW  A    A  R   R   N   NN  II  N   NN  G    G                |
|           W    W  A    A  R    R  N    N  II  N    N   GGGG   !!!           |
|                                                                             |
|     For optimal performance we recommend to set                             |
|       NCORE = 2 up to number-of-cores-per-socket                            |
|     NCORE specifies how many cores store one orbital (NPAR=cpu/NCORE).      |
|     This setting can greatly improve the performance of VASP for DFT.       |
|     The default, NCORE=1 might be grossly inefficient on modern             |
|     multi-core architectures or massively parallel machines. Do your        |
|     own testing! More info at https://www.vasp.at/wiki/index.php/NCORE      |
|     Unfortunately you need to use the default for GW and RPA                |
|     calculations (for HF NCORE is supported but not extensively tested      |
|     yet).                                                                   |
|                                                                             |
 -----------------------------------------------------------------------------

 POTCAR:    PAW_PBE Cd 06Sep2000                  
   SHA256 =  8b7ca71966beae5276c8bb910adb3ecc013a3354c27473914c94cd54c83be4f7 Cd/POTCAR             
   COPYR  = (c) Copyright 06Sep2000 Georg Kresse                                                    
   COPYR  = This file is part of the software VASP. Any use, copying, and all other rights are regul
   COPYR  = If you do not have a valid VASP license, you may not use, copy or distribute this file. 
   VRHFIN =Cd : s2 d10                                                                              
   LEXCH  = PE                                                                                      
   EATOM  =  1293.1815 eV,   95.0462 Ry                                                             
                                                                                                    
   TITEL  = PAW_PBE Cd 06Sep2000                                                                    
   LULTRA =        F    use ultrasoft PP ?                                                          
   IUNSCR =        1    unscreen: 0-lin 1-nonlin 2-no                                               
   RPACOR =    2.000    partial core radius                                                         
   POMASS =  112.411; ZVAL   =   12.000    mass and valenz                                          
   RCORE  =    2.300    outmost cutoff radius                                                       
   RWIGS  =    2.980; RWIGS  =    1.577    wigner-seitz radius (au A)                               
   ENMAX  =  274.336; ENMIN  =  205.752 eV                                                          
   RCLOC  =    2.054    cutoff for local pot                                                        
   LCOR   =        T    correct aug charges                                                         
   LPAW   =        T    paw PP                                                                      
   EAUG   =  456.106                                                                                
   DEXC   =    0.000                                                                                
   RMAX   =    2.358    core radius for proj-oper                                                   
   RAUG   =    1.300    factor for augmentation sphere                                              
   RDEP   =    2.450    radius for radial grids                                                     
   RDEPT  =    1.955    core radius for aug-charge                                                  
                                                                                                    
   Atomic configuration                                                                             
   12 entries                                                                                       
     n  l   j            E        occ.                                                              
     1  0  0.50    -26519.7817   2.0000                                                             
     2  0  0.50     -3936.9612   2.0000                                                             
     2  1  1.50     -3532.2230   6.0000                                                             
     3  0  0.50      -733.7908   2.0000                                                             
     3  1  1.50      -601.0792   6.0000                                                             
     3  2  2.50      -393.5307  10.0000                                                             
     4  0  0.50      -105.8977   2.0000                                                             
     4  1  1.50       -66.9488   6.0000                                                             
     4  2  2.50       -11.7331  10.0000                                                             
     5  0  0.50        -5.6592   2.0000                                                             
     5  1  0.50        -1.3606   0.0000                                                             
     4  3  2.50        -1.3606   0.0000                                                             
   Description                                                                                      
     l       E           TYP  RCUT    TYP  RCUT                                                     
     2    -11.7331479     23  2.300                                                                 
     2    -13.0937305     23  2.300                                                                 
     0     -5.6591502     23  2.300                                                                 
     0     -1.5561433     23  2.300                                                                 
     1     -2.7211652     23  2.300                                                                 
     1      8.3548275     23  2.300                                                                 
  local pseudopotential read in
  partial core-charges read in
  partial kinetic energy density read in
  atomic valenz-charges read in
  non local Contribution for L=           2  read in
    real space projection operators read in
  non local Contribution for L=           2  read in
    real space projection operators read in
  non local Contribution for L=           0  read in
    real space projection operators read in
  non local Contribution for L=           0  read in
    real space projection operators read in
  non local Contribution for L=           1  read in
    real space projection operators read in
  non local Contribution for L=           1  read in
    real space projection operators read in
    PAW grid and wavefunctions read in
 
   number of l-projection  operators is LMAX  =           6
   number of lm-projection operators is LMMAX =          18
 
 POTCAR:    PAW_PBE S 06Sep2000                   
   SHA256 =  0fc7481fb0695f01bdc6462160264c5c84044ae9ec85a907d398b887a2bc3132 S/POTCAR              
   COPYR  = (c) Copyright 06Sep2000 Georg Kresse                                                    
   COPYR  = This file is part of the software VASP. Any use, copying, and all other rights are regul
   COPYR  = If you do not have a valid VASP license, you may not use, copy or distribute this file. 
   VRHFIN =S : s2p4                                                                                 
   LEXCH  = PE                                                                                      
   EATOM  =   276.8230 eV,   20.3459 Ry                                                             
                                                                                                    
   TITEL  = PAW_PBE S 06Sep2000                                                                     
   LULTRA =        F    use ultrasoft PP ?                                                          
   IUNSCR =        1    unscreen: 0-lin 1-nonlin 2-no                                               
   RPACOR =    1.500    partial core radius                                                         
   POMASS =   32.066; ZVAL   =    6.000    mass and valenz                                          
   RCORE  =    1.900    outmost cutoff radius                                                       
   RWIGS  =    2.200; RWIGS  =    1.164    wigner-seitz radius (au A)                               
   ENMAX  =  258.689; ENMIN  =  194.016 eV                                                          
   ICORE  =        2    local potential                                                             
   LCOR   =        T    correct aug charges                                                         
   LPAW   =        T    paw PP                                                                      
   EAUG   =  335.092                                                                                
   DEXC   =    0.000                                                                                
   RMAX   =    1.942    core radius for proj-oper                                                   
   RAUG   =    1.300    factor for augmentation sphere                                              
   RDEP   =    1.954    radius for radial grids                                                     
   RDEPT  =    1.744    core radius for aug-charge                                                  
                                                                                                    
   Atomic configuration                                                                             
    6 entries                                                                                       
     n  l   j            E        occ.                                                              
     1  0  0.50     -2405.8406   2.0000                                                             
     2  0  0.50      -211.7007   2.0000                                                             
     2  1  1.50      -156.4958   6.0000                                                             
     3  0  0.50       -17.2562   2.0000                                                             
     3  1  0.50        -7.0085   4.0000                                                             
     3  2  1.50        -6.8029   0.0000                                                             
   Description                                                                                      
     l       E           TYP  RCUT    TYP  RCUT                                                     
     0    -17.2561641     23  1.900                                                                 
     0    -15.8743224     23  1.900                                                                 
     1     -7.0085400     23  1.900                                                                 
     1     -2.7779785     23  1.900                                                                 
     2     -6.8029130     23  1.900                                                                 
  local pseudopotential read in
  partial core-charges read in
  partial kinetic energy density read in
  atomic valenz-charges read in
  non local Contribution for L=           0  read in
    real space projection operators read in
  non local Contribution for L=           0  read in
    real space projection operators read in
  non local Contribution for L=           1  read in
    real space projection operators read in
  non local Contribution for L=           1  read in
    real space projection operators read in
    PAW grid and wavefunctions read in
 
   number of l-projection  operators is LMAX  =           4
   number of lm-projection operators is LMMAX =           8
 
 -----------------------------------------------------------------------------
|                                                                             |
|               ----> ADVICE to this user running VASP <----                  |
|                                                                             |
|     You have a (more or less) 'large supercell' and for larger cells it     |
|     might be more efficient to use real-space projection operators.         |
|     Therefore, try LREAL= Auto in the INCAR file.                           |
|     Mind: For very accurate calculation, you might also keep the            |
|     reciprocal projection scheme (i.e. LREAL=.FALSE.).                      |
|                                                                             |
 -----------------------------------------------------------------------------

  PAW_PBE Cd 06Sep2000                  :
 energy of atom  1       EATOM=-1293.1815
 kinetic energy error for atom=    0.0223 (will be added to EATOM!!)
  PAW_PBE S 06Sep2000                   :
 energy of atom  2       EATOM= -276.8230
 kinetic energy error for atom=    0.0046 (will be added to EATOM!!)
 
 
 POSCAR: Cd S
  positions in direct lattice
  No initial velocities read in
 exchange correlation table for  LEXCH =        8
   RHO(1)=    0.500       N(1)  =     2000
   RHO(2)=  100.500       N(2)  =     4000
 


--------------------------------------------------------------------------------------------------------


 ion  position               nearest neighbor table
   1  0.222  0.111  0.250-  51 2.55  63 2.55  59 2.55  50 2.55
   2  0.222  0.778  0.750-  61 2.55  57 2.55  47 2.55  60 2.55
   3  0.111  0.889  0.500-  58 2.55  50 2.55  44 2.55  61 2.55
   4  0.556  0.778  0.250-  49 2.55  48 2.55  45 2.55  70 2.55
   5  0.444  0.889  0.500-  70 2.55  58 2.55  62 2.55  47 2.55
   6  0.556  0.111  0.250-  63 2.55  38 2.55  49 2.55  62 2.55
   7  0.444  0.222  0.000-  64 2.55  52 2.55  68 2.55  63 2.55
   8  0.889  0.444  0.750-  40 2.55  43 2.55  57 2.55  42 2.55
   9  0.778  0.556  0.000-  42 2.55  67 2.55  68 2.55  41 2.55
  10  0.556  0.111  0.750-  65 2.55  40 2.55  47 2.55  64 2.55
  11  0.444  0.222  0.500-  62 2.55  50 2.55  66 2.55  65 2.55
  12  0.556  0.444  0.250-  41 2.55  63 2.55  48 2.55  66 2.55
  13  0.444  0.556  0.000-  56 2.55  71 2.55  68 2.55  48 2.55
  14  0.778  0.222  0.500-  37 2.55  39 2.55  62 2.55  40 2.55
  15  0.889  0.111  0.750-  40 2.55  53 2.55  72 2.55  46 2.55
  16  0.889  0.444  0.250-  38 2.55  41 2.55  55 2.55  39 2.55
  17  0.556  0.444  0.750-  43 2.55  65 2.55  69 2.55  68 2.55
  18  0.778  0.556  0.500-  39 2.55  44 2.55  66 2.55  43 2.55
  19  0.222  0.778  0.250-  59 2.55  55 2.55  49 2.55  58 2.55
  20  0.111  0.222  0.000-  52 2.55  56 2.55  46 2.55  51 2.55
  21  0.778  0.889  0.500-  44 2.55  70 2.55  37 2.55  72 2.55
  22  0.889  0.778  0.750-  72 2.55  43 2.55  61 2.55  67 2.55
  23  0.222  0.111  0.750-  53 2.55  65 2.55  61 2.55  52 2.55
  24  0.111  0.222  0.500-  50 2.55  54 2.55  37 2.55  53 2.55
  25  0.556  0.778  0.750-  47 2.55  69 2.55  72 2.55  71 2.55
  26  0.111  0.889  0.000-  60 2.55  52 2.55  67 2.55  59 2.55
  27  0.889  0.111  0.250-  38 2.55  45 2.55  51 2.55  37 2.55
  28  0.111  0.556  0.000-  56 2.55  60 2.55  42 2.55  55 2.55
  29  0.778  0.889  0.000-  67 2.55  71 2.55  46 2.55  45 2.55
  30  0.889  0.778  0.250-  45 2.55  41 2.55  59 2.55  44 2.55
  31  0.222  0.444  0.750-  53 2.55  57 2.55  69 2.55  56 2.55
  32  0.111  0.556  0.500-  54 2.55  58 2.55  39 2.55  57 2.55
  33  0.778  0.222  0.000-  46 2.55  42 2.55  64 2.55  38 2.55
  34  0.444  0.889  0.000-  71 2.55  60 2.55  64 2.55  49 2.55
  35  0.222  0.444  0.250-  48 2.55  51 2.55  55 2.55  54 2.55
  36  0.444  0.556  0.500-  54 2.55  70 2.55  66 2.55  69 2.55
  37  0.889  0.111  0.438-  14 2.55  21 2.55  24 2.55  27 2.55
  38  0.778  0.222  0.188-  27 2.55  16 2.55   6 2.55  33 2.55
  39  0.889  0.444  0.438-  14 2.55  18 2.55  32 2.55  16 2.55
  40  0.778  0.222  0.688-  15 2.55  10 2.55   8 2.55  14 2.55
  41  0.778  0.556  0.188-  12 2.55  16 2.55  30 2.55   9 2.55
  42  0.889  0.444  0.938-   9 2.55  33 2.55  28 2.55   8 2.55
  43  0.778  0.556  0.688-   8 2.55  17 2.55  22 2.55  18 2.55
  44  0.889  0.778  0.438-  21 2.55  18 2.55   3 2.55  30 2.55
  45  0.778  0.889  0.188-  30 2.55   4 2.55  27 2.55  29 2.55
  46  0.889  0.111  0.938-  33 2.55  29 2.55  20 2.55  15 2.55
  47  0.444  0.889  0.688-  25 2.55   2 2.55  10 2.55   5 2.55
  48  0.444  0.556  0.188-   4 2.55  35 2.55  12 2.55  13 2.55
  49  0.444  0.889  0.188-   4 2.55  19 2.55   6 2.55  34 2.55
  50  0.222  0.111  0.438-  24 2.55  11 2.55   3 2.55   1 2.55
  51  0.111  0.222  0.188-   1 2.55  35 2.55  27 2.55  20 2.55
  52  0.222  0.111  0.938-  20 2.55   7 2.55  26 2.55  23 2.55
  53  0.111  0.222  0.688-  23 2.55  31 2.55  15 2.55  24 2.55
  54  0.222  0.444  0.438-  24 2.55  32 2.55  36 2.55  35 2.55
  55  0.111  0.556  0.188-  19 2.55  35 2.55  16 2.55  28 2.55
  56  0.222  0.444  0.938-  13 2.55  20 2.55  28 2.55  31 2.55
  57  0.111  0.556  0.688-   2 2.55  31 2.55   8 2.55  32 2.55
  58  0.222  0.778  0.438-   3 2.55   5 2.55  32 2.55  19 2.55
  59  0.111  0.889  0.188-  19 2.55   1 2.55  30 2.55  26 2.55
  60  0.222  0.778  0.938-  26 2.55  28 2.55  34 2.55   2 2.55
  61  0.111  0.889  0.688-   2 2.55  22 2.55  23 2.55   3 2.55
  62  0.556  0.111  0.438-  11 2.55  14 2.55   5 2.55   6 2.55
  63  0.444  0.222  0.188-   6 2.55   1 2.55  12 2.55   7 2.55
  64  0.556  0.111  0.938-   7 2.55  33 2.55  34 2.55  10 2.55
  65  0.444  0.222  0.688-  10 2.55  17 2.55  23 2.55  11 2.55
  66  0.556  0.444  0.438-  11 2.55  18 2.55  36 2.55  12 2.55
  67  0.889  0.778  0.938-  29 2.55   9 2.55  26 2.55  22 2.55
  68  0.556  0.444  0.938-   7 2.55   9 2.55  13 2.55  17 2.55
  69  0.444  0.556  0.688-  25 2.55  31 2.55  17 2.55  36 2.55
  70  0.556  0.778  0.438-   5 2.55  21 2.55  36 2.55   4 2.55
  71  0.556  0.778  0.938-  34 2.55  29 2.55  13 2.55  25 2.55
  72  0.778  0.889  0.688-  22 2.55  25 2.55  15 2.55  21 2.55
 
  LATTYP: Found a hexagonal cell.
 ALAT       =    12.5065142985
 C/A-ratio  =     1.0841737751
  
  Lattice vectors:
  
 A1 = (   6.2532571493, -10.8309590953,   0.0000000000)
 A2 = (   6.2532571493,  10.8309590953,   0.0000000000)
 A3 = (   0.0000000000,   0.0000000000,  13.5592348200)


Analysis of symmetry for initial positions (statically):
=====================================================================
 Subroutine PRICEL returns following result:
 
  LATTYP: Found a hexagonal cell.
 ALAT       =     4.1688380995
 C/A-ratio  =     1.6262606626
  
  Lattice vectors:
  
 A1 = (   2.0844190498,  -3.6103196984,   0.0000000000)
 A2 = (   2.0844190498,   3.6103196984,   0.0000000000)
 A3 = (   0.0000000000,   0.0000000000,   6.7796174100)
 
  18 primitive cells build up your supercell.
 

 Routine SETGRP: Setting up the symmetry group for a 
 hexagonal supercell.


 Subroutine GETGRP returns: Found 12 space group operations
 (whereof  6 operations were pure point group operations)
 out of a pool of 24 trial point group operations.


The static configuration has the point symmetry C_3v.
 The point group associated with its full space group is C_6v.


Analysis of symmetry for dynamics (positions and initial velocities):
=====================================================================
 Subroutine PRICEL returns following result:
 
  LATTYP: Found a hexagonal cell.
 ALAT       =     4.1688380995
 C/A-ratio  =     1.6262606626
  
  Lattice vectors:
  
 A1 = (   2.0844190498,  -3.6103196984,   0.0000000000)
 A2 = (   2.0844190498,   3.6103196984,   0.0000000000)
 A3 = (   0.0000000000,   0.0000000000,   6.7796174100)
 
  18 primitive cells build up your supercell.
 

 Routine SETGRP: Setting up the symmetry group for a 
 hexagonal supercell.


 Subroutine GETGRP returns: Found 12 space group operations
 (whereof  6 operations were pure point group operations)
 out of a pool of 24 trial point group operations.


The dynamic configuration has the point symmetry C_3v.
 The point group associated with its full space group is C_6v.


 Subroutine INISYM returns: Found 12 space group operations
 (whereof  6 operations are pure point group operations),
 and found    18 'primitive' translations


----------------------------------------------------------------------------------------

                                     Primitive cell                                     

  volume of cell :     102.0389

  direct lattice vectors                    reciprocal lattice vectors
     2.084419050 -3.610319698  0.000000000     0.239874991 -0.138491890  0.000000000
     2.084419050  3.610319698  0.000000000     0.239874991  0.138491890  0.000000000
     0.000000000  0.000000000  6.779617410     0.000000000  0.000000000  0.147500949

  length of vectors
     4.168838100  4.168838100  6.779617410     0.276983781  0.276983781  0.147500949

  position of ions in fractional coordinates (direct lattice)
     0.666666667  0.333333333  0.500224370
     0.333333333  0.666666667  0.000224370
     0.666666667  0.333333333  0.876775630
     0.333333333  0.666666667  0.376775630

  ion indices of the primitive-cell ions
   primitive index   ion index
                 1           1
                 2          24
                 3          50
                 4          51

----------------------------------------------------------------------------------------

 
 
 KPOINTS: Automatic mesh                          

Automatic generation of k-mesh.
 Grid dimensions read from file:
 generate k-points for:    5    5    5

 Generating k-lattice:

  Cartesian coordinates                     Fractional coordinates (reciprocal lattice)
     0.015991666 -0.009232793  0.000000000     0.200000000  0.000000000  0.000000000
     0.015991666  0.009232793  0.000000000     0.000000000  0.200000000  0.000000000
     0.000000000  0.000000000  0.014750095     0.000000000  0.000000000  0.200000000

  Length of vectors
     0.018465585  0.018465585  0.014750095

  Shift w.r.t. Gamma in fractional coordinates (k-lattice)
     0.000000000  0.000000000  0.000000000

 
 Subroutine IBZKPT returns following result:
 ===========================================
 
 Found     15 irreducible k-points:
 
 Following reciprocal coordinates:
            Coordinates               Weight
  0.000000  0.000000  0.000000      1.000000
  0.200000 -0.000000  0.000000      6.000000
  0.400000  0.000000  0.000000      6.000000
  0.200000  0.200000  0.000000      6.000000
  0.400000  0.200000  0.000000      6.000000
  0.000000  0.000000  0.200000      2.000000
  0.200000 -0.000000  0.200000     12.000000
  0.400000  0.000000  0.200000     12.000000
  0.200000  0.200000  0.200000     12.000000
  0.400000  0.200000  0.200000     12.000000
  0.000000  0.000000  0.400000      2.000000
  0.200000 -0.000000  0.400000     12.000000
  0.400000  0.000000  0.400000     12.000000
  0.200000  0.200000  0.400000     12.000000
  0.400000  0.200000  0.400000     12.000000
 
 Following cartesian coordinates:
            Coordinates               Weight
  0.000000  0.000000  0.000000      1.000000
  0.015992 -0.009233  0.000000      6.000000
  0.031983 -0.018466  0.000000      6.000000
  0.031983 -0.000000  0.000000      6.000000
  0.047975 -0.009233  0.000000      6.000000
  0.000000  0.000000  0.014750      2.000000
  0.015992 -0.009233  0.014750     12.000000
  0.031983 -0.018466  0.014750     12.000000
  0.031983 -0.000000  0.014750     12.000000
  0.047975 -0.009233  0.014750     12.000000
  0.000000  0.000000  0.029500      2.000000
  0.015992 -0.009233  0.029500     12.000000
  0.031983 -0.018466  0.029500     12.000000
  0.031983 -0.000000  0.029500     12.000000
  0.047975 -0.009233  0.029500     12.000000
 


--------------------------------------------------------------------------------------------------------




 Dimension of arrays:
   k-points           NKPTS =     15   k-points in BZ     NKDIM =     15   number of bands    NBANDS=    416
   number of dos      NEDOS =    301   number of ions     NIONS =     72
   non local maximal  LDIM  =      6   non local SUM 2l+1 LMDIM =     18
   total plane-waves  NPLWV = 635040
   max r-space proj   IRMAX =      1   max aug-charges    IRDMAX=  14819
   dimension x,y,z NGX =    84 NGY =   84 NGZ =   90
   dimension x,y,z NGXF=   168 NGYF=  168 NGZF=  180
   support grid    NGXF=   168 NGYF=  168 NGZF=  180
   ions per type =              36  36
   NGX,Y,Z   is equivalent  to a cutoff of  11.17, 11.17, 11.03 a.u.
   NGXF,Y,Z  is equivalent  to a cutoff of  22.33, 22.33, 22.07 a.u.

 SYSTEM =  unknown system                          
 POSCAR =  Cd S                                    

 Startparameter for this run:
   NWRITE =      2    write-flag & timer
   PREC   = accura    normal or accurate (medium, high low for compatibility)
   ISTART =      0    job   : 0-new  1-cont  2-samecut
   ICHARG =      2    charge: 1-file 2-atom 10-const
   ISPIN  =      1    spin polarized calculation?
   LNONCOLLINEAR =      F non collinear calculations
   LSORBIT =      F    spin-orbit coupling
   INIWAV =      1    electr: 0-lowe 1-rand  2-diag
   LASPH  =      F    aspherical Exc in radial PAW
 Electronic Relaxation 1
   ENCUT  =  400.0 eV  29.40 Ry    5.42 a.u.  20.39 20.39 22.11*2*pi/ulx,y,z
   ENINI  =  400.0     initial cutoff
   ENAUG  =  456.1 eV  augmentation charge cutoff
   NELM   =    100;   NELMIN=  2; NELMDL= -5     # of ELM steps 
   EDIFF  = 0.1E-05   stopping-criterion for ELM
   LREAL  =      F    real-space projection
   NLSPLINE    = F    spline interpolate recip. space projectors
   LCOMPAT=      F    compatible to vasp.4.4
   GGA_COMPAT  = T    GGA compatible to vasp.4.4-vasp.4.6
   LMAXPAW     = -100 max onsite density
   LMAXMIX     =    2 max onsite mixed and CHGCAR
   VOSKOWN=      0    Vosko Wilk Nusair interpolation
   ROPT   =    0.00000   0.00000
 Ionic relaxation
   EDIFFG = 0.1E-04   stopping-criterion for IOM
   NSW    =      0    number of steps for IOM
   NBLOCK =      1;   KBLOCK =      1    inner block; outer block 
   IBRION =     -1    ionic relax: 0-MD 1-quasi-New 2-CG
   NFREE  =      0    steps in history (QN), initial steepest desc. (CG)
   ISIF   =      2    stress and relaxation
   IWAVPR =     10    prediction:  0-non 1-charg 2-wave 3-comb
   ISYM   =      2    0-nonsym 1-usesym 2-fastsym
   LCORR  =      T    Harris-Foulkes like correction to forces

   POTIM  = 0.5000    time-step for ionic-motion
   TEIN   =    0.0    initial temperature
   TEBEG  =    0.0;   TEEND  =   0.0 temperature during run
   SMASS  =  -3.00    Nose mass-parameter (am)
   estimated Nose-frequenzy (Omega)   =  0.10E-29 period in steps = 0.13E+47 mass=  -0.357E-26a.u.
   SCALEE = 1.0000    scale energy and forces
   NPACO  =    256;   APACO  = 10.0  distance and # of slots for P.C.
   PSTRESS=    0.0 pullay stress

  Mass of Ions in am
   POMASS = 112.41 32.07
  Ionic Valenz
   ZVAL   =  12.00  6.00
  Atomic Wigner-Seitz radii
   RWIGS  =  -1.00 -1.00
  virtual crystal weights 
   VCA    =   1.00  1.00
   NELECT =     648.0000    total number of electrons
   NUPDOWN=      -1.0000    fix difference up-down

 DOS related values:
   EMIN   =  10.00;   EMAX   =-10.00  energy-range for DOS
   EFERMI =   0.00;   METHOD = LEGACY      
   ISMEAR =     0;   SIGMA  =   0.05  broadening in eV -4-tet -1-fermi 0-gaus

 Electronic relaxation 2 (details)
   IALGO  =     38    algorithm
   LDIAG  =      T    sub-space diagonalisation (order eigenvalues)
   LSUBROT=      F    optimize rotation matrix (better conditioning)
   TURBO    =      0    0=normal 1=particle mesh
   IRESTART =      0    0=no restart 2=restart with 2 vectors
   NREBOOT  =      0    no. of reboots
   NMIN     =      0    reboot dimension
   EREF     =   0.00    reference energy to select bands
   IMIX   =      4    mixing-type and parameters
     AMIX     =   0.40;   BMIX     =  1.00
     AMIX_MAG =   1.60;   BMIX_MAG =  1.00
     AMIN     =   0.10
     WC   =   100.;   INIMIX=   1;  MIXPRE=   1;  MAXMIX= -45

 Intra band minimization:
   WEIMIN = 0.0000     energy-eigenvalue tresh-hold
   EBREAK =  0.60E-09  absolut break condition
   DEPER  =   0.30     relativ break condition  

   TIME   =   0.40     timestep for ELM

  volume/ion in A,a.u.               =      25.51       172.15
  Fermi-wavevector in a.u.,A,eV,Ry     =   1.156788  2.186012 18.206746  1.338158
  Thomas-Fermi vector in A             =   2.293405
 
 Write flags
   LWAVE        =      F    write WAVECAR
   LDOWNSAMPLE  =      F    k-point downsampling of WAVECAR
   LCHARG       =      F    write CHGCAR
   LVTOT        =      F    write LOCPOT, total local potential
   LVHAR        =      F    write LOCPOT, Hartree potential only
   LELF         =      F    write electronic localiz. function (ELF)
   LORBIT       =      0    0 simple, 1 ext, 2 COOP (PROOUT), +10 PAW based schemes


 Dipole corrections
   LMONO  =      F    monopole corrections only (constant potential shift)
   LDIPOL =      F    correct potential (dipole corrections)
   IDIPOL =      0    1-x, 2-y, 3-z, 4-all directions 
   EPSILON=  1.0000000 bulk dielectric constant

 Exchange correlation treatment:
   GGA     =    PE    GGA type
   LEXCH   =     8    internal setting for exchange type
   LIBXC   =     F    Libxc                    
   VOSKOWN =     0    Vosko Wilk Nusair interpolation
   LHFCALC =     F    Hartree Fock is set to
   LHFONE  =     F    Hartree Fock one center treatment
   AEXX    =    0.0000 exact exchange contribution

 Linear response parameters
   LEPSILON=     F    determine dielectric tensor
   LRPA    =     F    only Hartree local field effects (RPA)
   LNABLA  =     F    use nabla operator in PAW spheres
   LVEL    =     F    velocity operator in full k-point grid
   CSHIFT  =0.1000    complex shift for real part using Kramers Kronig
   OMEGAMAX=  -1.0    maximum frequency
   DEG_THRESHOLD= 0.2000000E-02 threshold for treating states as degnerate
   RTIME   =   -0.100 relaxation time in fs
  (WPLASMAI=    0.000 imaginary part of plasma frequency in eV, 0.658/RTIME)
   DFIELD  = 0.0000000 0.0000000 0.0000000 field for delta impulse in time
 
  Optional k-point grid parameters
   LKPOINTS_OPT  =     F    use optional k-point grid
   KPOINTS_OPT_MODE=     1    mode for optional k-point grid
 
 Orbital magnetization related:
   ORBITALMAG=     F  switch on orbital magnetization
   LCHIMAG   =     F  perturbation theory with respect to B field
   DQ        =  0.001000  dq finite difference perturbation B field
   LLRAUG    =     F  two centre corrections for induced B field
   LBONE     =     F  B-component reconstruction in AE one-centre
   LVGVCALC  =     T  calculate vGv susceptibility
   LVGVAPPL  =     F  apply vGv susceptibility instead of pGv for G=0

 Random number generation:
   RANDOM_GENERATOR = DEFAULT
   PCG_SEED         = not used


--------------------------------------------------------------------------------------------------------


 Static calculation
 charge density and potential will be updated during run
 non-spin polarized calculation
 Variant of blocked Davidson
 Davidson routine will perform the subspace rotation
 perform sub-space diagonalisation
    after iterative eigenvector-optimisation
 modified Broyden-mixing scheme, WC =      100.0
 initial mixing is a Kerker type mixing with AMIX =  0.4000 and BMIX =      1.0000
 Hartree-type preconditioning will be used
 using additional bands           92
 reciprocal scheme for non local part
 use partial core corrections
 calculate Harris-corrections to forces 
   (improved forces if not selfconsistent)
 use gradient corrections 
 use of overlap-Matrix (Vanderbilt PP)
 Gauss-broadening in eV      SIGMA  =   0.05


--------------------------------------------------------------------------------------------------------


  energy-cutoff  :      400.00
  volume of cell :     1836.70
      direct lattice vectors                 reciprocal lattice vectors
     6.253257149-10.830959095  0.000000000     0.079958330 -0.046163963  0.000000000
     6.253257149 10.830959095  0.000000000     0.079958330  0.046163963  0.000000000
     0.000000000  0.000000000 13.559234820     0.000000000  0.000000000  0.073750474

  length of vectors
    12.506514299 12.506514299 13.559234820     0.092327927  0.092327927  0.073750474


 
 k-points in units of 2pi/SCALE and weight: Automatic mesh                          
   0.00000000  0.00000000  0.00000000       0.008
   0.01599167 -0.00923279  0.00000000       0.048
   0.03198333 -0.01846559  0.00000000       0.048
   0.03198333 -0.00000000  0.00000000       0.048
   0.04797500 -0.00923279  0.00000000       0.048
   0.00000000  0.00000000  0.01475009       0.016
   0.01599167 -0.00923279  0.01475009       0.096
   0.03198333 -0.01846559  0.01475009       0.096
   0.03198333 -0.00000000  0.01475009       0.096
   0.04797500 -0.00923279  0.01475009       0.096
   0.00000000  0.00000000  0.02950019       0.016
   0.01599167 -0.00923279  0.02950019       0.096
   0.03198333 -0.01846559  0.02950019       0.096
   0.03198333 -0.00000000  0.02950019       0.096
   0.04797500 -0.00923279  0.02950019       0.096
 
 k-points in reciprocal lattice and weights: Automatic mesh                          
   0.00000000  0.00000000  0.00000000       0.008
   0.20000000 -0.00000000  0.00000000       0.048
   0.40000000  0.00000000  0.00000000       0.048
   0.20000000  0.20000000  0.00000000       0.048
   0.40000000  0.20000000  0.00000000       0.048
   0.00000000  0.00000000  0.20000000       0.016
   0.20000000 -0.00000000  0.20000000       0.096
   0.40000000  0.00000000  0.20000000       0.096
   0.20000000  0.20000000  0.20000000       0.096
   0.40000000  0.20000000  0.20000000       0.096
   0.00000000  0.00000000  0.40000000       0.016
   0.20000000 -0.00000000  0.40000000       0.096
   0.40000000  0.00000000  0.40000000       0.096
   0.20000000  0.20000000  0.40000000       0.096
   0.40000000  0.20000000  0.40000000       0.096
 
 position of ions in fractional coordinates (direct lattice) 
   0.22222222  0.11111111  0.25011218
   0.22222222  0.77777778  0.75011218
   0.11111111  0.88888889  0.50011218
   0.55555556  0.77777778  0.25011218
   0.44444444  0.88888889  0.50011218
   0.55555556  0.11111111  0.25011218
   0.44444444  0.22222222  0.00011218
   0.88888889  0.44444444  0.75011218
   0.77777778  0.55555556  0.00011218
   0.55555556  0.11111111  0.75011218
   0.44444444  0.22222222  0.50011218
   0.55555556  0.44444444  0.25011218
   0.44444444  0.55555556  0.00011218
   0.77777778  0.22222222  0.50011218
   0.88888889  0.11111111  0.75011218
   0.88888889  0.44444444  0.25011218
   0.55555556  0.44444444  0.75011218
   0.77777778  0.55555556  0.50011218
   0.22222222  0.77777778  0.25011218
   0.11111111  0.22222222  0.00011218
   0.77777778  0.88888889  0.50011218
   0.88888889  0.77777778  0.75011218
   0.22222222  0.11111111  0.75011218
   0.11111111  0.22222222  0.50011218
   0.55555556  0.77777778  0.75011218
   0.11111111  0.88888889  0.00011218
   0.88888889  0.11111111  0.25011218
   0.11111111  0.55555556  0.00011218
   0.77777778  0.88888889  0.00011218
   0.88888889  0.77777778  0.25011218
   0.22222222  0.44444444  0.75011218
   0.11111111  0.55555556  0.50011218
   0.77777778  0.22222222  0.00011218
   0.44444444  0.88888889  0.00011218
   0.22222222  0.44444444  0.25011218
   0.44444444  0.55555556  0.50011218
   0.88888889  0.11111111  0.43838781
   0.77777778  0.22222222  0.18838781
   0.88888889  0.44444444  0.43838781
   0.77777778  0.22222222  0.68838781
   0.77777778  0.55555556  0.18838781
   0.88888889  0.44444444  0.93838781
   0.77777778  0.55555556  0.68838781
   0.88888889  0.77777778  0.43838781
   0.77777778  0.88888889  0.18838781
   0.88888889  0.11111111  0.93838781
   0.44444444  0.88888889  0.68838781
   0.44444444  0.55555556  0.18838781
   0.44444444  0.88888889  0.18838781
   0.22222222  0.11111111  0.43838781
   0.11111111  0.22222222  0.18838781
   0.22222222  0.11111111  0.93838781
   0.11111111  0.22222222  0.68838781
   0.22222222  0.44444444  0.43838781
   0.11111111  0.55555556  0.18838781
   0.22222222  0.44444444  0.93838781
   0.11111111  0.55555556  0.68838781
   0.22222222  0.77777778  0.43838781
   0.11111111  0.88888889  0.18838781
   0.22222222  0.77777778  0.93838781
   0.11111111  0.88888889  0.68838781
   0.55555556  0.11111111  0.43838781
   0.44444444  0.22222222  0.18838781
   0.55555556  0.11111111  0.93838781
   0.44444444  0.22222222  0.68838781
   0.55555556  0.44444444  0.43838781
   0.88888889  0.77777778  0.93838781
   0.55555556  0.44444444  0.93838781
   0.44444444  0.55555556  0.68838781
   0.55555556  0.77777778  0.43838781
   0.55555556  0.77777778  0.93838781
   0.77777778  0.88888889  0.68838781
 
 position of ions in cartesian coordinates  (Angst):
   2.08441905 -1.20343990  3.39132985
   6.25325715  6.01719950 10.17094726
   6.25325715  8.42407930  6.78113855
   8.33767620  2.40687980  3.39132985
   8.33767620  4.81375960  6.78113855
   4.16883810 -4.81375960  3.39132985
   4.16883810 -2.40687980  0.00152114
   8.33767620 -4.81375960 10.17094726
   8.33767620 -2.40687980  0.00152114
   4.16883810 -4.81375960 10.17094726
   4.16883810 -2.40687980  6.78113855
   6.25325715 -1.20343990  3.39132985
   6.25325715  1.20343990  0.00152114
   6.25325715 -6.01719950  6.78113855
   6.25325715 -8.42407930 10.17094726
   8.33767620 -4.81375960  3.39132985
   6.25325715 -1.20343990 10.17094726
   8.33767620 -2.40687980  6.78113855
   6.25325715  6.01719950  3.39132985
   2.08441905  1.20343990  0.00152114
  10.42209525  1.20343990  6.78113855
  10.42209525 -1.20343990 10.17094726
   2.08441905 -1.20343990 10.17094726
   2.08441905  1.20343990  6.78113855
   8.33767620  2.40687980 10.17094726
   6.25325715  8.42407930  0.00152114
   6.25325715 -8.42407930  3.39132985
   4.16883810  4.81375960  0.00152114
  10.42209525  1.20343990  0.00152114
  10.42209525 -1.20343990  3.39132985
   4.16883810  2.40687980 10.17094726
   4.16883810  4.81375960  6.78113855
   6.25325715 -6.01719950  0.00152114
   8.33767620  4.81375960  0.00152114
   4.16883810  2.40687980  3.39132985
   6.25325715  1.20343990  6.78113855
   6.25325715 -8.42407930  5.94420333
   6.25325715 -6.01719950  2.55439462
   8.33767620 -4.81375960  5.94420333
   6.25325715 -6.01719950  9.33401203
   8.33767620 -2.40687980  2.55439462
   8.33767620 -4.81375960 12.72382074
   8.33767620 -2.40687980  9.33401203
  10.42209525 -1.20343990  5.94420333
  10.42209525  1.20343990  2.55439462
   6.25325715 -8.42407930 12.72382074
   8.33767620  4.81375960  9.33401203
   6.25325715  1.20343990  2.55439462
   8.33767620  4.81375960  2.55439462
   2.08441905 -1.20343990  5.94420333
   2.08441905  1.20343990  2.55439462
   2.08441905 -1.20343990 12.72382074
   2.08441905  1.20343990  9.33401203
   4.16883810  2.40687980  5.94420333
   4.16883810  4.81375960  2.55439462
   4.16883810  2.40687980 12.72382074
   4.16883810  4.81375960  9.33401203
   6.25325715  6.01719950  5.94420333
   6.25325715  8.42407930  2.55439462
   6.25325715  6.01719950 12.72382074
   6.25325715  8.42407930  9.33401203
   4.16883810 -4.81375960  5.94420333
   4.16883810 -2.40687980  2.55439462
   4.16883810 -4.81375960 12.72382074
   4.16883810 -2.40687980  9.33401203
   6.25325715 -1.20343990  5.94420333
  10.42209525 -1.20343990 12.72382074
   6.25325715 -1.20343990 12.72382074
   6.25325715  1.20343990  9.33401203
   8.33767620  2.40687980  5.94420333
   8.33767620  2.40687980 12.72382074
  10.42209525  1.20343990  9.33401203
 


--------------------------------------------------------------------------------------------------------


 k-point   1 :   0.0000 0.0000 0.0000  plane waves:   33411
 k-point   2 :   0.2000-0.0000 0.0000  plane waves:   33359
 k-point   3 :   0.4000 0.0000 0.0000  plane waves:   33352
 k-point   4 :   0.2000 0.2000 0.0000  plane waves:   33354
 k-point   5 :   0.4000 0.2000 0.0000  plane waves:   33360
 k-point   6 :   0.0000 0.0000 0.2000  plane waves:   33344
 k-point   7 :   0.2000-0.0000 0.2000  plane waves:   33383
 k-point   8 :   0.4000 0.0000 0.2000  plane waves:   33346
 k-point   9 :   0.2000 0.2000 0.2000  plane waves:   33342
 k-point  10 :   0.4000 0.2000 0.2000  plane waves:   33350
 k-point  11 :   0.0000 0.0000 0.4000  plane waves:   33404
 k-point  12 :   0.2000-0.0000 0.4000  plane waves:   33416
 k-point  13 :   0.4000 0.0000 0.4000  plane waves:   33358
 k-point  14 :   0.2000 0.2000 0.4000  plane waves:   33354
 k-point  15 :   0.4000 0.2000 0.4000  plane waves:   33351

 maximum and minimum number of plane-waves per node :     33416    33342

 maximum number of plane-waves:     33416
 maximum index in each direction: 
   IXMAX=   20   IYMAX=   20   IZMAX=   22
   IXMIN=  -20   IYMIN=  -20   IZMIN=  -22


 serial   3D FFT for wavefunctions
 parallel 3D FFT for charge:
    minimum data exchange during FFTs selected (reduces bandwidth)


 total amount of memory used by VASP MPI-rank0   365744. kBytes
=======================================================================

   base      :      30000. kBytes
   nonl-proj :     182983. kBytes
   fftplans  :       8559. kBytes
   grid      :      35755. kBytes
   one-center:       1119. kBytes
   wavefun   :     107328. kBytes
 
     INWAV:  cpu time      0.0000: real time      0.0000
 Broyden mixing: mesh for mixing (old mesh)
   NGX = 41   NGY = 41   NGZ = 45
  (NGX  =168   NGY  =168   NGZ  =180)
  gives a total of  75645 points

 initial charge density was supplied:
 charge density of overlapping atoms calculated
 number of electron     648.0000000 magnetization 
 keeping initial charge density in first step


--------------------------------------------------------------------------------------------------------


 Maximum index for augmentation-charges          622 (set IRDMAX)


--------------------------------------------------------------------------------------------------------


 First call to EWALD:  gamma=   0.145
 Maximum number of real-space cells 3x 3x 3
 Maximum number of reciprocal cells 3x 3x 3

    FEWALD:  cpu time      0.0024: real time      0.0024


--------------------------------------- Ionic step        1  -------------------------------------------




--------------------------------------- Iteration      1(   1)  ---------------------------------------


    POTLOK:  cpu time      0.6603: real time      1.0709
    SETDIJ:  cpu time      0.0107: real time      0.0413
     EDDAV:  cpu time    104.6934: real time    108.6343
       DOS:  cpu time      0.0031: real time      0.0077
    --------------------------------------------
      LOOP:  cpu time    105.3674: real time    109.7543

 eigenvalue-minimisations  : 12544
 total energy-change (2. order) : 0.4104852E+04  (-0.2711414E+05)
 number of electron     648.0000000 magnetization 
 augmentation part      648.0000000 magnetization 

 Free energy of the ion-electron system (eV)
  ---------------------------------------------------
  alpha Z        PSCENC =      2675.77335074
  Ewald energy   TEWEN  =    -41363.78645763
  -Hartree energ DENC   =    -16920.60810503
  -exchange      EXHF   =         0.00000000
  -V(xc)+E(xc)   XCENC  =       632.08754442
  PAW double counting   =     50910.12673542   -49579.16223443
  entropy T*S    EENTRO =        -0.02572033
  eigenvalues    EBANDS =      1231.25199695
  atomic energy  EATOM  =     56519.19489806
  Solvation  Ediel_sol  =         0.00000000
  ---------------------------------------------------
  free energy    TOTEN  =      4104.85200818 eV

  energy without entropy =     4104.87772851  energy(sigma->0) =     4104.86486834


--------------------------------------------------------------------------------------------------------




--------------------------------------- Iteration      1(   2)  ---------------------------------------


     EDDAV:  cpu time    110.4586: real time    111.7889
       DOS:  cpu time      0.0011: real time      0.0011
    --------------------------------------------
      LOOP:  cpu time    110.4598: real time    111.7900

 eigenvalue-minimisations  : 13920
 total energy-change (2. order) :-0.4060466E+04  (-0.3909384E+04)
 number of electron     648.0000000 magnetization 
 augmentation part      648.0000000 magnetization 

 Free energy of the ion-electron system (eV)
  ---------------------------------------------------
  alpha Z        PSCENC =      2675.77335074
  Ewald energy   TEWEN  =    -41363.78645763
  -Hartree energ DENC   =    -16920.60810503
  -exchange      EXHF   =         0.00000000
  -V(xc)+E(xc)   XCENC  =       632.08754442
  PAW double counting   =     50910.12673542   -49579.16223443
  entropy T*S    EENTRO =        -0.00000000
  eigenvalues    EBANDS =     -2829.23930065
  atomic energy  EATOM  =     56519.19489806
  Solvation  Ediel_sol  =         0.00000000
  ---------------------------------------------------
  free energy    TOTEN  =        44.38643091 eV

  energy without entropy =       44.38643091  energy(sigma->0) =       44.38643091


--------------------------------------------------------------------------------------------------------




--------------------------------------- Iteration      1(   3)  ---------------------------------------


     EDDAV:  cpu time    112.4639: real time    114.3752
       DOS:  cpu time      0.0011: real time      0.0011
    --------------------------------------------
      LOOP:  cpu time    112.4651: real time    114.3763

 eigenvalue-minimisations  : 14368
 total energy-change (2. order) :-0.2802625E+03  (-0.2778223E+03)
 number of electron     648.0000000 magnetization 
 augmentation part      648.0000000 magnetization 

 Free energy of the ion-electron system (eV)
  ---------------------------------------------------
  alpha Z        PSCENC =      2675.77335074
  Ewald energy   TEWEN  =    -41363.78645763
  -Hartree energ DENC   =    -16920.60810503
  -exchange      EXHF   =         0.00000000
  -V(xc)+E(xc)   XCENC  =       632.08754442
  PAW double counting   =     50910.12673542   -49579.16223443
  entropy T*S    EENTRO =        -0.00000000
  eigenvalues    EBANDS =     -3109.50184238
  atomic energy  EATOM  =     56519.19489806
  Solvation  Ediel_sol  =         0.00000000
  ---------------------------------------------------
  free energy    TOTEN  =      -235.87611082 eV

  energy without entropy =     -235.87611082  energy(sigma->0) =     -235.87611082


--------------------------------------------------------------------------------------------------------




--------------------------------------- Iteration      1(   4)  ---------------------------------------


     EDDAV:  cpu time    111.1887: real time    112.0185
       DOS:  cpu time      0.0012: real time      0.0012
    --------------------------------------------
      LOOP:  cpu time    111.1898: real time    112.0197

 eigenvalue-minimisations  : 14144
 total energy-change (2. order) :-0.4834688E+01  (-0.4818947E+01)
 number of electron     648.0000000 magnetization 
 augmentation part      648.0000000 magnetization 

 Free energy of the ion-electron system (eV)
  ---------------------------------------------------
  alpha Z        PSCENC =      2675.77335074
  Ewald energy   TEWEN  =    -41363.78645763
  -Hartree energ DENC   =    -16920.60810503
  -exchange      EXHF   =         0.00000000
  -V(xc)+E(xc)   XCENC  =       632.08754442
  PAW double counting   =     50910.12673542   -49579.16223443
  entropy T*S    EENTRO =        -0.00000000
  eigenvalues    EBANDS =     -3114.33653055
  atomic energy  EATOM  =     56519.19489806
  Solvation  Ediel_sol  =         0.00000000
  ---------------------------------------------------
  free energy    TOTEN  =      -240.71079899 eV

  energy without entropy =     -240.71079899  energy(sigma->0) =     -240.71079899


--------------------------------------------------------------------------------------------------------




--------------------------------------- Iteration      1(   5)  ---------------------------------------


     EDDAV:  cpu time    112.0600: real time    113.0570
       DOS:  cpu time      0.0011: real time      0.0011
    CHARGE:  cpu time      2.6731: real time      2.7492
    MIXING:  cpu time      0.0028: real time      0.0029
    --------------------------------------------
      LOOP:  cpu time    114.7371: real time    115.8102

 eigenvalue-minimisations  : 14336
 total energy-change (2. order) :-0.1005737E+00  (-0.1005303E+00)
 number of electron     648.0000492 magnetization 
 augmentation part      175.1336154 magnetization 

 Broyden mixing:
  rms(total) = 0.46105E+01    rms(broyden)= 0.46105E+01
  rms(prec ) = 0.48975E+01
  weight for this iteration     100.00

 Free energy of the ion-electron system (eV)
  ---------------------------------------------------
  alpha Z        PSCENC =      2675.77335074
  Ewald energy   TEWEN  =    -41363.78645763
  -Hartree energ DENC   =    -16920.60810503
  -exchange      EXHF   =         0.00000000
  -V(xc)+E(xc)   XCENC  =       632.08754442
  PAW double counting   =     50910.12673542   -49579.16223443
  entropy T*S    EENTRO =        -0.00000000
  eigenvalues    EBANDS =     -3114.43710426
  atomic energy  EATOM  =     56519.19489806
  Solvation  Ediel_sol  =         0.00000000
  ---------------------------------------------------
  free energy    TOTEN  =      -240.81137270 eV

  energy without entropy =     -240.81137270  energy(sigma->0) =     -240.81137270


--------------------------------------------------------------------------------------------------------




--------------------------------------- Iteration      1(   6)  ---------------------------------------


    POTLOK:  cpu time      0.1224: real time      0.1232
    SETDIJ:  cpu time      0.0080: real time      0.0080
     EDDAV:  cpu time    122.1947: real time    124.0110
       DOS:  cpu time      0.0012: real time      0.0012
    CHARGE:  cpu time      2.7385: real time      2.7589
    MIXING:  cpu time      0.0035: real time      0.0253
    --------------------------------------------
      LOOP:  cpu time    125.0682: real time    126.9276

 eigenvalue-minimisations  : 16000
 total energy-change (2. order) : 0.1940345E+02  (-0.4087483E+01)
 number of electron     648.0000495 magnetization 
 augmentation part      178.2707573 magnetization 

 Broyden mixing:
  rms(total) = 0.36531E+01    rms(broyden)= 0.36531E+01
  rms(prec ) = 0.36896E+01
  weight for this iteration     100.00

 eigenvalues of (default mixing * dielectric matrix)
  average eigenvalue GAMMA=   2.3417
  2.3417

 Free energy of the ion-electron system (eV)
  ---------------------------------------------------
  alpha Z        PSCENC =      2675.77335074
  Ewald energy   TEWEN  =    -41363.78645763
  -Hartree energ DENC   =    -16830.10972313
  -exchange      EXHF   =         0.00000000
  -V(xc)+E(xc)   XCENC  =       637.62349470
  PAW double counting   =     55391.18961604   -54034.38179152
  entropy T*S    EENTRO =        -0.00000000
  eigenvalues    EBANDS =     -3216.91130554
  atomic energy  EATOM  =     56519.19489806
  Solvation  Ediel_sol  =         0.00000000
  ---------------------------------------------------
  free energy    TOTEN  =      -221.40791828 eV

  energy without entropy =     -221.40791828  energy(sigma->0) =     -221.40791828


--------------------------------------------------------------------------------------------------------




--------------------------------------- Iteration      1(   7)  ---------------------------------------


    POTLOK:  cpu time      0.1216: real time      0.1944
    SETDIJ:  cpu time      0.0113: real time      0.0113
     EDDAV:  cpu time    109.0372: real time    110.8030
       DOS:  cpu time      0.0012: real time      0.0012
    CHARGE:  cpu time      2.6769: real time      2.6963
    MIXING:  cpu time      0.0033: real time      0.0033
    --------------------------------------------
      LOOP:  cpu time    111.8514: real time    113.7094

 eigenvalue-minimisations  : 13952
 total energy-change (2. order) : 0.4242158E-01  (-0.1817046E+01)
 number of electron     648.0000495 magnetization 
 augmentation part      179.3723724 magnetization 

 Broyden mixing:
  rms(total) = 0.13386E+01    rms(broyden)= 0.13386E+01
  rms(prec ) = 0.13631E+01
  weight for this iteration     100.00

 eigenvalues of (default mixing * dielectric matrix)
  average eigenvalue GAMMA=   1.7955
  1.2366  2.3543

 Free energy of the ion-electron system (eV)
  ---------------------------------------------------
  alpha Z        PSCENC =      2675.77335074
  Ewald energy   TEWEN  =    -41363.78645763
  -Hartree energ DENC   =    -16851.93229211
  -exchange      EXHF   =         0.00000000
  -V(xc)+E(xc)   XCENC  =       643.63110229
  PAW double counting   =     62835.03174799   -61475.77000718
  entropy T*S    EENTRO =        -0.00000000
  eigenvalues    EBANDS =     -3203.50783887
  atomic energy  EATOM  =     56519.19489806
  Solvation  Ediel_sol  =         0.00000000
  ---------------------------------------------------
  free energy    TOTEN  =      -221.36549670 eV

  energy without entropy =     -221.36549670  energy(sigma->0) =     -221.36549670


--------------------------------------------------------------------------------------------------------




--------------------------------------- Iteration      1(   8)  ---------------------------------------


    POTLOK:  cpu time      0.1152: real time      0.1215
    SETDIJ:  cpu time      0.0078: real time      0.0078
     EDDAV:  cpu time    110.0498: real time    111.0054
       DOS:  cpu time      0.0012: real time      0.0012
    CHARGE:  cpu time      2.8215: real time      2.8513
    MIXING:  cpu time      0.0035: real time      0.0036
    --------------------------------------------
      LOOP:  cpu time    112.9991: real time    113.9908

 eigenvalue-minimisations  : 13856
 total energy-change (2. order) : 0.2851087E+00  (-0.2910679E+00)
 number of electron     648.0000494 magnetization 
 augmentation part      178.5395543 magnetization 

 Broyden mixing:
  rms(total) = 0.28564E+00    rms(broyden)= 0.28563E+00
  rms(prec ) = 0.29415E+00
  weight for this iteration     100.00

 eigenvalues of (default mixing * dielectric matrix)
  average eigenvalue GAMMA=   1.6798
  2.2648  1.3874  1.3874

 Free energy of the ion-electron system (eV)
  ---------------------------------------------------
  alpha Z        PSCENC =      2675.77335074
  Ewald energy   TEWEN  =    -41363.78645763
  -Hartree energ DENC   =    -16873.32146481
  -exchange      EXHF   =         0.00000000
  -V(xc)+E(xc)   XCENC  =       643.72646818
  PAW double counting   =     66369.08708379   -65014.95168209
  entropy T*S    EENTRO =        -0.00000000
  eigenvalues    EBANDS =     -3176.80258427
  atomic energy  EATOM  =     56519.19489806
  Solvation  Ediel_sol  =         0.00000000
  ---------------------------------------------------
  free energy    TOTEN  =      -221.08038803 eV

  energy without entropy =     -221.08038803  energy(sigma->0) =     -221.08038803


--------------------------------------------------------------------------------------------------------




--------------------------------------- Iteration      1(   9)  ---------------------------------------


    POTLOK:  cpu time      0.1171: real time      0.1204
    SETDIJ:  cpu time      0.0077: real time      0.0078
     EDDAV:  cpu time    109.8848: real time    110.8607
       DOS:  cpu time      0.0024: real time      0.0024
    CHARGE:  cpu time      2.6143: real time      2.6331
    MIXING:  cpu time      0.0031: real time      0.0031
    --------------------------------------------
      LOOP:  cpu time    112.6294: real time    113.6275

 eigenvalue-minimisations  : 14112
 total energy-change (2. order) : 0.4432778E-02  (-0.4014477E-01)
 number of electron     648.0000495 magnetization 
 augmentation part      178.8357141 magnetization 

 Broyden mixing:
  rms(total) = 0.93501E-01    rms(broyden)= 0.93498E-01
  rms(prec ) = 0.98798E-01
  weight for this iteration     100.00

 eigenvalues of (default mixing * dielectric matrix)
  average eigenvalue GAMMA=   1.5236
  2.3439  1.1512  1.1512  1.4481

 Free energy of the ion-electron system (eV)
  ---------------------------------------------------
  alpha Z        PSCENC =      2675.77335074
  Ewald energy   TEWEN  =    -41363.78645763
  -Hartree energ DENC   =    -16852.05192904
  -exchange      EXHF   =         0.00000000
  -V(xc)+E(xc)   XCENC  =       643.65480105
  PAW double counting   =     66849.34786877   -65490.99358310
  entropy T*S    EENTRO =        -0.00000000
  eigenvalues    EBANDS =     -3202.21490410
  atomic energy  EATOM  =     56519.19489806
  Solvation  Ediel_sol  =         0.00000000
  ---------------------------------------------------
  free energy    TOTEN  =      -221.07595526 eV

  energy without entropy =     -221.07595526  energy(sigma->0) =     -221.07595526


--------------------------------------------------------------------------------------------------------




--------------------------------------- Iteration      1(  10)  ---------------------------------------


    POTLOK:  cpu time      0.0990: real time      0.0998
    SETDIJ:  cpu time      0.0078: real time      0.0078
     EDDAV:  cpu time    110.2231: real time    111.5190
       DOS:  cpu time      0.0014: real time      0.0014
    CHARGE:  cpu time      2.6420: real time      2.6642
    MIXING:  cpu time      0.0034: real time      0.0034
    --------------------------------------------
      LOOP:  cpu time    112.9766: real time    114.2954

 eigenvalue-minimisations  : 14432
 total energy-change (2. order) : 0.1855654E-02  (-0.3022887E-02)
 number of electron     648.0000494 magnetization 
 augmentation part      178.7460706 magnetization 

 Broyden mixing:
  rms(total) = 0.47575E-01    rms(broyden)= 0.47574E-01
  rms(prec ) = 0.48679E-01
  weight for this iteration     100.00

 eigenvalues of (default mixing * dielectric matrix)
  average eigenvalue GAMMA=   1.2931
  2.2949  1.5032  1.1396  1.1396  0.3879

 Free energy of the ion-electron system (eV)
  ---------------------------------------------------
  alpha Z        PSCENC =      2675.77335074
  Ewald energy   TEWEN  =    -41363.78645763
  -Hartree energ DENC   =    -16858.22999958
  -exchange      EXHF   =         0.00000000
  -V(xc)+E(xc)   XCENC  =       643.79742438
  PAW double counting   =     67020.23167173   -65662.64503762
  entropy T*S    EENTRO =        -0.00000000
  eigenvalues    EBANDS =     -3195.40994969
  atomic energy  EATOM  =     56519.19489806
  Solvation  Ediel_sol  =         0.00000000
  ---------------------------------------------------
  free energy    TOTEN  =      -221.07409960 eV

  energy without entropy =     -221.07409960  energy(sigma->0) =     -221.07409960


--------------------------------------------------------------------------------------------------------




--------------------------------------- Iteration      1(  11)  ---------------------------------------


    POTLOK:  cpu time      0.1009: real time      0.2604
    SETDIJ:  cpu time      0.0078: real time      0.0079
     EDDAV:  cpu time    111.1085: real time    112.2109
       DOS:  cpu time      0.0017: real time      0.0017
    CHARGE:  cpu time      3.0206: real time      3.0443
    MIXING:  cpu time      0.0031: real time      0.0032
    --------------------------------------------
      LOOP:  cpu time    114.2427: real time    115.5284

 eigenvalue-minimisations  : 14304
 total energy-change (2. order) :-0.1751275E-02  (-0.5090323E-03)
 number of electron     648.0000494 magnetization 
 augmentation part      178.7198211 magnetization 

 Broyden mixing:
  rms(total) = 0.31824E-01    rms(broyden)= 0.31823E-01
  rms(prec ) = 0.33149E-01
  weight for this iteration     100.00

 eigenvalues of (default mixing * dielectric matrix)
  average eigenvalue GAMMA=   1.5686
  2.3239  1.9013  1.9013  0.9360  1.1746  1.1746

 Free energy of the ion-electron system (eV)
  ---------------------------------------------------
  alpha Z        PSCENC =      2675.77335074
  Ewald energy   TEWEN  =    -41363.78645763
  -Hartree energ DENC   =    -16859.77715435
  -exchange      EXHF   =         0.00000000
  -V(xc)+E(xc)   XCENC  =       643.84138259
  PAW double counting   =     66921.83241901   -65564.25500321
  entropy T*S    EENTRO =        -0.00000000
  eigenvalues    EBANDS =     -3193.89928608
  atomic energy  EATOM  =     56519.19489806
  Solvation  Ediel_sol  =         0.00000000
  ---------------------------------------------------
  free energy    TOTEN  =      -221.07585088 eV

  energy without entropy =     -221.07585088  energy(sigma->0) =     -221.07585088


--------------------------------------------------------------------------------------------------------




--------------------------------------- Iteration      1(  12)  ---------------------------------------


    POTLOK:  cpu time      0.0969: real time      0.0982
    SETDIJ:  cpu time      0.0093: real time      0.0093
     EDDAV:  cpu time    105.9718: real time    107.1381
       DOS:  cpu time      0.0012: real time      0.0012
    CHARGE:  cpu time      2.8716: real time      2.8964
    MIXING:  cpu time      0.0038: real time      0.0038
    --------------------------------------------
      LOOP:  cpu time    108.9546: real time    110.1471

 eigenvalue-minimisations  : 13504
 total energy-change (2. order) :-0.1735308E-02  (-0.4100769E-03)
 number of electron     648.0000494 magnetization 
 augmentation part      178.7414933 magnetization 

 Broyden mixing:
  rms(total) = 0.15331E-01    rms(broyden)= 0.15331E-01
  rms(prec ) = 0.16946E-01
  weight for this iteration     100.00

 eigenvalues of (default mixing * dielectric matrix)
  average eigenvalue GAMMA=   1.5989
  2.7711  2.3342  1.5399  1.5399  0.9824  0.9824  1.0424

 Free energy of the ion-electron system (eV)
  ---------------------------------------------------
  alpha Z        PSCENC =      2675.77335074
  Ewald energy   TEWEN  =    -41363.78645763
  -Hartree energ DENC   =    -16860.85203836
  -exchange      EXHF   =         0.00000000
  -V(xc)+E(xc)   XCENC  =       643.94911689
  PAW double counting   =     66806.08447272   -65448.29267317
  entropy T*S    EENTRO =        -0.00000000
  eigenvalues    EBANDS =     -3193.14825544
  atomic energy  EATOM  =     56519.19489806
  Solvation  Ediel_sol  =         0.00000000
  ---------------------------------------------------
  free energy    TOTEN  =      -221.07758618 eV

  energy without entropy =     -221.07758618  energy(sigma->0) =     -221.07758618


--------------------------------------------------------------------------------------------------------




--------------------------------------- Iteration      1(  13)  ---------------------------------------


    POTLOK:  cpu time      0.1130: real time      0.1140
    SETDIJ:  cpu time      0.0113: real time      0.0114
     EDDAV:  cpu time    103.1024: real time    103.9183
       DOS:  cpu time      0.0011: real time      0.0011
    CHARGE:  cpu time      2.5419: real time      2.5597
    MIXING:  cpu time      0.0029: real time      0.0029
    --------------------------------------------
      LOOP:  cpu time    105.7726: real time    106.6074

 eigenvalue-minimisations  : 13536
 total energy-change (2. order) :-0.2201915E-03  (-0.1210464E-03)
 number of electron     648.0000494 magnetization 
 augmentation part      178.7319763 magnetization 

 Broyden mixing:
  rms(total) = 0.69888E-02    rms(broyden)= 0.69887E-02
  rms(prec ) = 0.71591E-02
  weight for this iteration     100.00

 eigenvalues of (default mixing * dielectric matrix)
  average eigenvalue GAMMA=   1.5547
  2.9326  2.4468  1.4189  1.4189  1.1340  1.1340  0.9763  0.9763

 Free energy of the ion-electron system (eV)
  ---------------------------------------------------
  alpha Z        PSCENC =      2675.77335074
  Ewald energy   TEWEN  =    -41363.78645763
  -Hartree energ DENC   =    -16861.83312675
  -exchange      EXHF   =         0.00000000
  -V(xc)+E(xc)   XCENC  =       643.97792109
  PAW double counting   =     66804.26236804   -65446.48054571
  entropy T*S    EENTRO =        -0.00000000
  eigenvalues    EBANDS =     -3192.18621423
  atomic energy  EATOM  =     56519.19489806
  Solvation  Ediel_sol  =         0.00000000
  ---------------------------------------------------
  free energy    TOTEN  =      -221.07780638 eV

  energy without entropy =     -221.07780638  energy(sigma->0) =     -221.07780638


--------------------------------------------------------------------------------------------------------




--------------------------------------- Iteration      1(  14)  ---------------------------------------


    POTLOK:  cpu time      0.1056: real time      0.1066
    SETDIJ:  cpu time      0.0073: real time      0.0074
     EDDAV:  cpu time    114.6169: real time    116.0726
       DOS:  cpu time      0.0012: real time      0.0013
    CHARGE:  cpu time      2.9394: real time      2.9635
    MIXING:  cpu time      0.0036: real time      0.0037
    --------------------------------------------
      LOOP:  cpu time    117.6741: real time    119.1549

 eigenvalue-minimisations  : 14848
 total energy-change (2. order) :-0.5618538E-05  (-0.2305802E-04)
 number of electron     648.0000494 magnetization 
 augmentation part      178.7271088 magnetization 

 Broyden mixing:
  rms(total) = 0.19971E-02    rms(broyden)= 0.19970E-02
  rms(prec ) = 0.20711E-02
  weight for this iteration     100.00

 eigenvalues of (default mixing * dielectric matrix)
  average eigenvalue GAMMA=   1.5042
  2.9453  2.3101  1.5212  1.5212  1.6455  0.9699  1.0370  1.0370  0.5509

 Free energy of the ion-electron system (eV)
  ---------------------------------------------------
  alpha Z        PSCENC =      2675.77335074
  Ewald energy   TEWEN  =    -41363.78645763
  -Hartree energ DENC   =    -16861.98561628
  -exchange      EXHF   =         0.00000000
  -V(xc)+E(xc)   XCENC  =       643.98275046
  PAW double counting   =     66818.86716567   -65461.07801811
  entropy T*S    EENTRO =        -0.00000000
  eigenvalues    EBANDS =     -3192.04588492
  atomic energy  EATOM  =     56519.19489806
  Solvation  Ediel_sol  =         0.00000000
  ---------------------------------------------------
  free energy    TOTEN  =      -221.07781199 eV

  energy without entropy =     -221.07781199  energy(sigma->0) =     -221.07781199


--------------------------------------------------------------------------------------------------------




--------------------------------------- Iteration      1(  15)  ---------------------------------------


    POTLOK:  cpu time      0.1247: real time      0.1258
    SETDIJ:  cpu time      0.0082: real time      0.0082
     EDDAV:  cpu time    106.2033: real time    107.4062
       DOS:  cpu time      0.0012: real time      0.0012
    CHARGE:  cpu time      3.1185: real time      3.1447
    MIXING:  cpu time      0.0044: real time      0.0044
    --------------------------------------------
      LOOP:  cpu time    109.4603: real time    110.6906

 eigenvalue-minimisations  : 13504
 total energy-change (2. order) :-0.4768524E-05  (-0.1594214E-05)
 number of electron     648.0000494 magnetization 
 augmentation part      178.7285268 magnetization 

 Broyden mixing:
  rms(total) = 0.19934E-02    rms(broyden)= 0.19934E-02
  rms(prec ) = 0.20133E-02
  weight for this iteration     100.00

 eigenvalues of (default mixing * dielectric matrix)
  average eigenvalue GAMMA=   1.6175
  3.3926  2.5949  2.4531  1.3618  1.3618  1.1898  1.0259  1.0259  0.9827  0.7864

 Free energy of the ion-electron system (eV)
  ---------------------------------------------------
  alpha Z        PSCENC =      2675.77335074
  Ewald energy   TEWEN  =    -41363.78645763
  -Hartree energ DENC   =    -16862.00452733
  -exchange      EXHF   =         0.00000000
  -V(xc)+E(xc)   XCENC  =       643.98886740
  PAW double counting   =     66825.86874741   -65468.06472002
  entropy T*S    EENTRO =        -0.00000000
  eigenvalues    EBANDS =     -3192.04797540
  atomic energy  EATOM  =     56519.19489806
  Solvation  Ediel_sol  =         0.00000000
  ---------------------------------------------------
  free energy    TOTEN  =      -221.07781676 eV

  energy without entropy =     -221.07781676  energy(sigma->0) =     -221.07781676


--------------------------------------------------------------------------------------------------------




--------------------------------------- Iteration      1(  16)  ---------------------------------------


    POTLOK:  cpu time      0.1307: real time      0.1319
    SETDIJ:  cpu time      0.0080: real time      0.0080
     EDDAV:  cpu time    108.0850: real time    109.4650
       DOS:  cpu time      0.0071: real time      0.0071
    CHARGE:  cpu time      2.7779: real time      2.8178
    MIXING:  cpu time      0.0042: real time      0.0042
    --------------------------------------------
      LOOP:  cpu time    111.0129: real time    112.4340

 eigenvalue-minimisations  : 13440
 total energy-change (2. order) :-0.2021174E-05  (-0.9872824E-06)
 number of electron     648.0000494 magnetization 
 augmentation part      178.7274453 magnetization 

 Broyden mixing:
  rms(total) = 0.10788E-02    rms(broyden)= 0.10788E-02
  rms(prec ) = 0.11068E-02
  weight for this iteration     100.00

 eigenvalues of (default mixing * dielectric matrix)
  average eigenvalue GAMMA=   1.5775
  3.3683  2.6423  2.4786  1.3538  1.3538  1.2123  1.2123  1.0224  0.9929  0.9929
  0.7231

 Free energy of the ion-electron system (eV)
  ---------------------------------------------------
  alpha Z        PSCENC =      2675.77335074
  Ewald energy   TEWEN  =    -41363.78645763
  -Hartree energ DENC   =    -16862.13394762
  -exchange      EXHF   =         0.00000000
  -V(xc)+E(xc)   XCENC  =       643.99119198
  PAW double counting   =     66823.20306860   -65465.40920363
  entropy T*S    EENTRO =        -0.00000000
  eigenvalues    EBANDS =     -3191.91071930
  atomic energy  EATOM  =     56519.19489806
  Solvation  Ediel_sol  =         0.00000000
  ---------------------------------------------------
  free energy    TOTEN  =      -221.07781878 eV

  energy without entropy =     -221.07781878  energy(sigma->0) =     -221.07781878


--------------------------------------------------------------------------------------------------------




--------------------------------------- Iteration      1(  17)  ---------------------------------------


    POTLOK:  cpu time      0.1209: real time      0.1221
    SETDIJ:  cpu time      0.0078: real time      0.0078
     EDDAV:  cpu time     85.6289: real time     86.3584
       DOS:  cpu time      0.0029: real time      0.0029
    --------------------------------------------
      LOOP:  cpu time     85.7606: real time     86.4913

 eigenvalue-minimisations  : 10048
 total energy-change (2. order) :-0.7030249E-06  (-0.9501598E-07)
 number of electron     648.0000494 magnetization 
 augmentation part      178.7274453 magnetization 

 Free energy of the ion-electron system (eV)
  ---------------------------------------------------
  alpha Z        PSCENC =      2675.77335074
  Ewald energy   TEWEN  =    -41363.78645763
  -Hartree energ DENC   =    -16862.11839601
  -exchange      EXHF   =         0.00000000
  -V(xc)+E(xc)   XCENC  =       643.99112332
  PAW double counting   =     66820.67946901   -65462.88449745
  entropy T*S    EENTRO =        -0.00000000
  eigenvalues    EBANDS =     -3191.92730953
  atomic energy  EATOM  =     56519.19489806
  Solvation  Ediel_sol  =         0.00000000
  ---------------------------------------------------
  free energy    TOTEN  =      -221.07781949 eV

  energy without entropy =     -221.07781949  energy(sigma->0) =     -221.07781949


--------------------------------------------------------------------------------------------------------




 average (electrostatic) potential at core
  the test charge radii are     1.0698  0.9698
  (the norm of the test charge is              1.0000)
       1 -39.4630       2 -39.4630       3 -39.4630       4 -39.4630       5 -39.4630
       6 -39.4630       7 -39.4630       8 -39.4630       9 -39.4630      10 -39.4630
      11 -39.4630      12 -39.4630      13 -39.4630      14 -39.4630      15 -39.4630
      16 -39.4630      17 -39.4630      18 -39.4630      19 -39.4630      20 -39.4630
      21 -39.4630      22 -39.4630      23 -39.4630      24 -39.4630      25 -39.4630
      26 -39.4630      27 -39.4630      28 -39.4630      29 -39.4630      30 -39.4630
      31 -39.4630      32 -39.4630      33 -39.4630      34 -39.4630      35 -39.4630
      36 -39.4630      37 -89.3371      38 -89.3371      39 -89.3371      40 -89.3371
      41 -89.3371      42 -89.3371      43 -89.3371      44 -89.3371      45 -89.3371
      46 -89.3371      47 -89.3371      48 -89.3371      49 -89.3371      50 -89.3371
      51 -89.3371      52 -89.3371      53 -89.3371      54 -89.3371      55 -89.3371
      56 -89.3371      57 -89.3371      58 -89.3371      59 -89.3371      60 -89.3371
      61 -89.3371      62 -89.3371      63 -89.3371      64 -89.3371      65 -89.3371
      66 -89.3371      67 -89.3371      68 -89.3371      69 -89.3371      70 -89.3371
      71 -89.3371      72 -89.3371
 
 
 
 E-fermi :   1.2948     XC(G=0):  -9.0141     alpha+bet : -6.8947

 Fermi energy:         1.2947568301

 k-point     1 :       0.0000    0.0000    0.0000
  band No.  band energies     occupation 
      1     -11.1286      2.00000
      2     -10.9215      2.00000
      3     -10.9215      2.00000
      4     -10.8460      2.00000
      5     -10.8460      2.00000
      6     -10.8460      2.00000
      7     -10.8460      2.00000
      8     -10.8460      2.00000
      9     -10.8460      2.00000
     10     -10.7241      2.00000
     11     -10.7241      2.00000
     12     -10.7241      2.00000
     13     -10.7241      2.00000
     14     -10.7241      2.00000
     15     -10.7241      2.00000
     16     -10.7241      2.00000
     17     -10.7241      2.00000
     18     -10.7241      2.00000
     19     -10.7241      2.00000
     20     -10.7241      2.00000
     21     -10.7241      2.00000
     22     -10.7219      2.00000
     23     -10.6382      2.00000
     24     -10.6382      2.00000
     25     -10.6382      2.00000
     26     -10.6382      2.00000
     27     -10.6281      2.00000
     28     -10.6281      2.00000
     29     -10.6281      2.00000
     30     -10.6281      2.00000
     31     -10.6194      2.00000
     32     -10.6194      2.00000
     33     -10.6194      2.00000
     34     -10.6194      2.00000
     35     -10.6194      2.00000
     36     -10.6194      2.00000
     37      -6.5316      2.00000
     38      -6.5250      2.00000
     39      -6.5250      2.00000
     40      -6.4920      2.00000
     41      -6.4920      2.00000
     42      -6.4920      2.00000
     43      -6.4920      2.00000
     44      -6.4639      2.00000
     45      -6.4639      2.00000
     46      -6.4516      2.00000
     47      -6.4516      2.00000
     48      -6.4516      2.00000
     49      -6.4516      2.00000
     50      -6.4516      2.00000
     51      -6.4516      2.00000
     52      -6.4462      2.00000
     53      -6.4462      2.00000
     54      -6.4362      2.00000
     55      -6.4362      2.00000
     56      -6.4362      2.00000
     57      -6.4362      2.00000
     58      -6.4362      2.00000
     59      -6.4362      2.00000
     60      -6.4089      2.00000
     61      -6.4089      2.00000
     62      -6.4089      2.00000
     63      -6.4089      2.00000
     64      -6.4089      2.00000
     65      -6.4089      2.00000
     66      -6.4089      2.00000
     67      -6.4089      2.00000
     68      -6.4089      2.00000
     69      -6.4089      2.00000
     70      -6.4089      2.00000
     71      -6.4089      2.00000
     72      -6.3641      2.00000
     73      -6.3641      2.00000
     74      -6.3641      2.00000
     75      -6.3641      2.00000
     76      -6.3641      2.00000
     77      -6.3641      2.00000
     78      -6.3641      2.00000
     79      -6.3641      2.00000
     80      -6.3641      2.00000
     81      -6.3641      2.00000
     82      -6.3641      2.00000
     83      -6.3641      2.00000
     84      -6.3530      2.00000
     85      -6.3530      2.00000
     86      -6.3530      2.00000
     87      -6.3530      2.00000
     88      -6.3375      2.00000
     89      -6.3375      2.00000
     90      -6.3375      2.00000
     91      -6.3375      2.00000
     92      -6.3180      2.00000
     93      -6.3180      2.00000
     94      -6.3180      2.00000
     95      -6.3180      2.00000
     96      -6.3180      2.00000
     97      -6.3180      2.00000
     98      -6.3116      2.00000
     99      -6.3116      2.00000
    100      -6.3008      2.00000
    101      -6.3008      2.00000
    102      -6.3008      2.00000
    103      -6.3008      2.00000
    104      -6.2947      2.00000
    105      -6.2947      2.00000
    106      -6.2947      2.00000
    107      -6.2947      2.00000
    108      -6.2947      2.00000
    109      -6.2947      2.00000
    110      -6.2408      2.00000
    111      -6.2408      2.00000
    112      -6.2272      2.00000
    113      -6.2272      2.00000
    114      -6.2272      2.00000
    115      -6.2272      2.00000
    116      -6.2272      2.00000
    117      -6.2272      2.00000
    118      -6.2019      2.00000
    119      -6.2019      2.00000
    120      -6.2019      2.00000
    121      -6.2019      2.00000
    122      -6.2019      2.00000
    123      -6.2019      2.00000
    124      -6.2019      2.00000
    125      -6.2019      2.00000
    126      -6.2019      2.00000
    127      -6.2019      2.00000
    128      -6.2019      2.00000
    129      -6.2019      2.00000
    130      -6.1825      2.00000
    131      -6.1825      2.00000
    132      -6.1825      2.00000
    133      -6.1825      2.00000
    134      -6.1825      2.00000
    135      -6.1825      2.00000
    136      -6.1484      2.00000
    137      -6.1484      2.00000
    138      -6.1484      2.00000
    139      -6.1484      2.00000
    140      -6.1385      2.00000
    141      -6.1385      2.00000
    142      -6.1308      2.00000
    143      -6.1308      2.00000
    144      -6.1308      2.00000
    145      -6.1308      2.00000
    146      -6.1240      2.00000
[...]
    FORHAR:  cpu time      0.0441: real time      0.0444
    MIXING:  cpu time      0.0038: real time      0.0038
    OFIELD:  cpu time      0.0001: real time      0.0000

  FORCE on cell =-STRESS in cart. coord.  units (eV):
  Direction    XX          YY          ZZ          XY          YZ          ZX
  --------------------------------------------------------------------------------------
  Alpha Z  2675.77335  2675.77335  2675.77335
  Ewald  -13950.52709-13950.52709-13462.98328    -0.00000    -0.00000    -0.00000
  Hartree  5491.91735  5491.91735  5878.29065    -0.00000     0.00000    -0.00000
  E(xc)   -3049.78513 -3049.78519 -3049.53475     0.00000    -0.00000     0.00000
  Local     419.29106   419.29378  -458.63028     0.00000    -0.00000    -0.00000
  n-local  -464.94345  -458.78719  -463.26531     3.27569     0.07518    -0.23430
  augment   538.02230   538.02042   538.42128     0.00000    -0.00000    -0.00000
  Kinetic  8343.15265  8354.90962  8354.60433     6.28275     0.12504    -0.38439
  Fock        0.00000     0.00000     0.00000     0.00000     0.00000     0.00000
  -------------------------------------------------------------------------------------
  Total      11.85805    11.85805    12.67598     0.00000     0.00000     0.00000
  in kB      10.34393    10.34393    11.05742     0.00000     0.00000     0.00000
  external pressure =       10.58 kB  Pullay stress =        0.00 kB


 VOLUME and BASIS-vectors are now :
 -----------------------------------------------------------------------------
  energy-cutoff  :      400.00
  volume of cell :     1836.70
      direct lattice vectors                 reciprocal lattice vectors
     6.253257149-10.830959095  0.000000000     0.079958330 -0.046163963  0.000000000
     6.253257149 10.830959095  0.000000000     0.079958330  0.046163963  0.000000000
     0.000000000  0.000000000 13.559234820     0.000000000  0.000000000  0.073750474

  length of vectors
    12.506514299 12.506514299 13.559234820     0.092327927  0.092327927  0.073750474


 FORCES acting on ions
    electron-ion (+dipol)            ewald-force                    non-local-force                 convergence-correction
 -----------------------------------------------------------------------------------------------
   0.270E-07 -.471E-06 -.193E+01   -.687E-10 0.921E-11 0.194E+01   0.364E-17 -.510E-18 -.777E-02   0.218E-11 -.195E-08 -.206E-04
   0.270E-07 -.471E-06 -.193E+01   -.167E-12 0.472E-10 0.194E+01   0.257E-18 -.103E-18 -.777E-02   -.192E-11 -.194E-08 -.206E-04
   0.270E-07 0.471E-06 -.193E+01   -.163E-12 0.287E-10 0.194E+01   0.308E-17 0.369E-17 -.777E-02   -.113E-11 0.194E-08 -.206E-04
   0.270E-07 -.471E-06 -.193E+01   0.349E-10 0.294E-10 0.194E+01   0.319E-17 -.263E-18 -.777E-02   -.242E-11 -.195E-08 -.206E-04
   0.270E-07 0.471E-06 -.193E+01   0.362E-10 0.542E-11 0.194E+01   0.468E-17 0.139E-17 -.777E-02   -.156E-11 0.195E-08 -.206E-04
   0.270E-07 -.471E-06 -.193E+01   -.289E-10 -.158E-10 0.194E+01   0.411E-17 -.635E-18 -.777E-02   0.182E-11 -.194E-08 -.206E-04
   0.270E-07 0.471E-06 -.193E+01   -.324E-10 -.298E-10 0.194E+01   -.547E-18 0.116E-17 -.777E-02   0.213E-11 0.195E-08 -.206E-04
   0.270E-07 -.471E-06 -.193E+01   0.284E-10 -.350E-11 0.194E+01   -.324E-17 0.227E-18 -.777E-02   0.778E-12 -.194E-08 -.206E-04
   0.270E-07 0.471E-06 -.193E+01   0.349E-10 -.383E-10 0.194E+01   0.912E-18 0.279E-17 -.777E-02   -.112E-11 0.194E-08 -.206E-04
   0.270E-07 -.471E-06 -.193E+01   -.284E-10 -.367E-11 0.194E+01   -.403E-17 -.109E-17 -.777E-02   0.135E-11 -.194E-08 -.206E-04
   0.270E-07 0.471E-06 -.193E+01   -.327E-10 -.311E-10 0.194E+01   0.532E-17 0.747E-17 -.777E-02   0.246E-11 0.195E-08 -.206E-04
   0.270E-07 -.471E-06 -.193E+01   0.168E-11 0.486E-11 0.194E+01   0.516E-17 0.172E-17 -.777E-02   0.498E-12 -.195E-08 -.206E-04
   0.270E-07 0.471E-06 -.193E+01   -.190E-11 0.197E-11 0.194E+01   -.989E-18 0.467E-17 -.777E-02   -.109E-11 0.194E-08 -.206E-04
   0.270E-07 0.471E-06 -.193E+01   -.130E-10 -.392E-10 0.194E+01   0.375E-17 0.491E-17 -.777E-02   0.206E-11 0.195E-08 -.206E-04
   0.270E-07 -.471E-06 -.193E+01   -.142E-12 -.287E-10 0.194E+01   0.102E-17 0.108E-17 -.777E-02   0.159E-11 -.194E-08 -.206E-04
   0.270E-07 -.471E-06 -.193E+01   0.345E-10 -.101E-10 0.194E+01   0.288E-17 0.176E-17 -.777E-02   0.473E-12 -.194E-08 -.206E-04
   0.270E-07 -.471E-06 -.193E+01   0.159E-11 0.129E-10 0.194E+01   -.392E-17 -.494E-18 -.777E-02   0.628E-12 -.195E-08 -.206E-04
   0.270E-07 0.471E-06 -.193E+01   0.367E-10 -.307E-10 0.194E+01   0.243E-17 0.344E-17 -.777E-02   -.141E-11 0.194E-08 -.206E-04
   0.270E-07 -.471E-06 -.193E+01   0.769E-11 0.400E-10 0.194E+01   0.335E-17 -.490E-18 -.777E-02   -.208E-11 -.194E-08 -.206E-04
   0.270E-07 0.471E-06 -.193E+01   -.630E-10 -.739E-11 0.194E+01   -.143E-17 0.592E-18 -.777E-02   0.284E-11 0.194E-08 -.206E-04
   0.270E-07 0.471E-06 -.193E+01   0.609E-10 0.448E-11 0.194E+01   0.413E-17 0.309E-17 -.777E-02   -.203E-11 0.194E-08 -.206E-04
   0.270E-07 -.471E-06 -.193E+01   0.532E-10 0.608E-11 0.194E+01   0.116E-17 -.652E-18 -.777E-02   -.256E-11 -.195E-08 -.206E-04
   0.270E-07 -.471E-06 -.193E+01   -.533E-10 0.325E-11 0.194E+01   -.147E-17 -.827E-18 -.777E-02   0.214E-11 -.195E-08 -.206E-04
   0.270E-07 0.471E-06 -.193E+01   -.685E-10 -.428E-11 0.194E+01   0.274E-17 0.661E-17 -.777E-02   0.291E-11 0.194E-08 -.206E-04
   0.270E-07 -.471E-06 -.193E+01   0.320E-10 0.549E-11 0.194E+01   0.198E-17 0.102E-17 -.777E-02   -.271E-11 -.195E-08 -.206E-04
   0.270E-07 0.471E-06 -.193E+01   0.622E-14 0.288E-10 0.194E+01   0.161E-17 0.244E-17 -.777E-02   -.110E-11 0.194E-08 -.206E-04
   0.270E-07 -.471E-06 -.193E+01   -.400E-13 -.287E-10 0.194E+01   0.570E-17 -.516E-18 -.777E-02   0.186E-11 -.194E-08 -.206E-04
   0.270E-07 0.471E-06 -.193E+01   -.297E-10 0.204E-10 0.194E+01   0.579E-18 0.228E-17 -.777E-02   -.476E-12 0.195E-08 -.206E-04
   0.270E-07 0.471E-06 -.193E+01   0.593E-10 -.959E-11 0.194E+01   0.157E-18 0.330E-17 -.777E-02   -.183E-11 0.194E-08 -.206E-04
   0.270E-07 -.471E-06 -.193E+01   0.537E-10 0.376E-11 0.194E+01   0.355E-17 0.930E-18 -.777E-02   -.248E-11 -.195E-08 -.206E-04
   0.270E-07 -.471E-06 -.193E+01   -.307E-10 0.126E-10 0.194E+01   -.274E-17 -.282E-18 -.777E-02   0.133E-11 -.194E-08 -.206E-04
   0.270E-07 0.471E-06 -.193E+01   -.236E-10 0.151E-10 0.194E+01   0.111E-17 0.349E-17 -.777E-02   -.580E-12 0.195E-08 -.206E-04
   0.270E-07 0.471E-06 -.193E+01   0.628E-11 -.252E-10 0.194E+01   -.770E-18 -.106E-17 -.777E-02   0.215E-11 0.195E-08 -.206E-04
   0.270E-07 0.471E-06 -.193E+01   0.238E-10 0.142E-10 0.194E+01   0.235E-17 0.165E-17 -.777E-02   -.176E-11 0.195E-08 -.206E-04
   0.270E-07 -.471E-06 -.193E+01   -.315E-10 0.126E-10 0.194E+01   0.403E-17 0.198E-17 -.777E-02   0.774E-12 -.194E-08 -.206E-04
   0.270E-07 0.471E-06 -.193E+01   0.711E-14 0.533E-12 0.194E+01   0.153E-17 0.455E-17 -.777E-02   -.962E-12 0.194E-08 -.206E-04
   -.133E-06 -.202E-06 0.187E+01   0.160E-13 -.129E-10 -.194E+01   -.129E-17 -.914E-17 0.709E-01   0.817E-12 -.216E-08 0.152E-04
   -.133E-06 0.202E-06 0.187E+01   0.955E-14 -.108E-10 -.194E+01   -.912E-17 0.585E-17 0.709E-01   0.111E-11 0.216E-08 0.152E-04
   -.133E-06 -.202E-06 0.187E+01   0.272E-10 -.378E-12 -.194E+01   -.380E-17 -.465E-17 0.709E-01   0.263E-12 -.215E-08 0.152E-04
   -.133E-06 0.202E-06 0.187E+01   0.439E-12 -.111E-10 -.194E+01   -.276E-17 0.990E-17 0.709E-01   0.962E-12 0.216E-08 0.152E-04
   -.133E-06 0.202E-06 0.187E+01   -.552E-11 -.917E-11 -.194E+01   -.101E-16 0.868E-17 0.709E-01   -.589E-12 0.216E-08 0.152E-04
   -.133E-06 -.202E-06 0.187E+01   0.276E-10 -.759E-12 -.194E+01   0.583E-17 -.796E-17 0.709E-01   0.412E-12 -.215E-08 0.152E-04
   -.133E-06 0.202E-06 0.187E+01   -.551E-11 -.919E-11 -.194E+01   0.116E-16 0.129E-16 0.709E-01   -.564E-12 0.216E-08 0.152E-04
   -.133E-06 -.202E-06 0.187E+01   0.174E-10 -.305E-11 -.194E+01   -.116E-16 -.145E-16 0.709E-01   -.135E-11 -.216E-08 0.152E-04
   -.133E-06 0.202E-06 0.187E+01   0.198E-10 0.116E-11 -.194E+01   -.492E-17 0.195E-17 0.709E-01   -.792E-12 0.215E-08 0.152E-04
   -.133E-06 -.202E-06 0.187E+01   0.195E-13 -.130E-10 -.194E+01   0.880E-17 -.128E-16 0.709E-01   0.809E-12 -.216E-08 0.152E-04
   -.133E-06 0.202E-06 0.187E+01   0.249E-10 -.302E-12 -.194E+01   0.760E-17 0.890E-17 0.709E-01   -.836E-12 0.216E-08 0.152E-04
   -.133E-06 0.202E-06 0.187E+01   -.285E-11 -.987E-11 -.194E+01   -.107E-16 0.155E-16 0.709E-01   -.528E-12 0.215E-08 0.152E-04
   -.133E-06 0.202E-06 0.187E+01   0.235E-10 0.206E-11 -.194E+01   -.540E-17 0.225E-17 0.709E-01   -.741E-12 0.216E-08 0.152E-04
   -.133E-06 -.202E-06 0.187E+01   -.200E-10 -.208E-11 -.194E+01   -.423E-17 -.752E-17 0.709E-01   0.110E-11 -.216E-08 0.152E-04
   -.133E-06 0.202E-06 0.187E+01   -.182E-10 0.174E-11 -.194E+01   -.105E-16 -.338E-18 0.709E-01   0.134E-11 0.216E-08 0.152E-04
   -.133E-06 -.202E-06 0.187E+01   -.201E-10 -.210E-11 -.194E+01   0.392E-17 -.158E-16 0.709E-01   0.926E-12 -.216E-08 0.152E-04
   -.133E-06 0.202E-06 0.187E+01   -.196E-10 0.258E-11 -.194E+01   0.199E-17 0.894E-17 0.709E-01   0.142E-11 0.216E-08 0.152E-04
   -.133E-06 -.202E-06 0.187E+01   0.777E-11 0.110E-10 -.194E+01   -.766E-17 -.843E-17 0.709E-01   0.516E-12 -.216E-08 0.152E-04
   -.133E-06 0.202E-06 0.187E+01   -.236E-10 0.106E-11 -.194E+01   -.147E-16 0.116E-16 0.709E-01   -.355E-12 0.216E-08 0.152E-04
   -.133E-06 -.202E-06 0.187E+01   0.795E-11 0.114E-10 -.194E+01   -.289E-18 -.131E-16 0.709E-01   0.542E-12 -.216E-08 0.152E-04
   -.133E-06 0.202E-06 0.187E+01   -.236E-10 0.104E-11 -.194E+01   0.121E-16 0.110E-16 0.709E-01   -.110E-12 0.216E-08 0.152E-04
   -.133E-06 -.202E-06 0.187E+01   -.283E-11 0.967E-11 -.194E+01   -.129E-16 -.103E-16 0.709E-01   -.997E-12 -.216E-08 0.152E-04
   -.133E-06 0.202E-06 0.187E+01   0.542E-13 0.129E-10 -.194E+01   -.765E-17 0.671E-17 0.709E-01   -.534E-12 0.215E-08 0.152E-04
   -.133E-06 -.202E-06 0.187E+01   -.282E-11 0.969E-11 -.194E+01   0.103E-16 -.760E-17 0.709E-01   -.981E-12 -.216E-08 0.152E-04
   -.133E-06 0.202E-06 0.187E+01   0.480E-13 0.129E-10 -.194E+01   0.133E-16 0.998E-17 0.709E-01   -.549E-12 0.215E-08 0.152E-04
   -.133E-06 -.202E-06 0.187E+01   -.240E-10 -.275E-11 -.194E+01   -.361E-17 -.398E-17 0.709E-01   0.792E-12 -.215E-08 0.152E-04
   -.133E-06 0.202E-06 0.187E+01   0.725E-11 -.691E-11 -.194E+01   -.973E-17 0.700E-17 0.709E-01   0.114E-11 0.216E-08 0.152E-04
   -.133E-06 -.202E-06 0.187E+01   -.240E-10 -.277E-11 -.194E+01   0.576E-17 -.135E-16 0.709E-01   0.627E-12 -.215E-08 0.152E-04
   -.133E-06 0.202E-06 0.187E+01   0.606E-11 -.966E-11 -.194E+01   -.832E-18 0.786E-17 0.709E-01   0.113E-11 0.216E-08 0.152E-04
   -.133E-06 -.202E-06 0.187E+01   0.150E-11 0.113E-10 -.194E+01   -.522E-17 -.957E-17 0.709E-01   0.302E-12 -.216E-08 0.152E-04
   -.133E-06 -.202E-06 0.187E+01   0.173E-10 -.448E-11 -.194E+01   0.417E-17 0.593E-18 0.709E-01   -.114E-11 -.216E-08 0.152E-04
   -.133E-06 -.202E-06 0.187E+01   0.143E-11 0.114E-10 -.194E+01   0.722E-17 -.152E-16 0.709E-01   0.274E-12 -.216E-08 0.152E-04
   -.133E-06 0.202E-06 0.187E+01   0.236E-11 -.843E-11 -.194E+01   0.129E-16 0.991E-17 0.709E-01   -.388E-12 0.215E-08 0.152E-04
   -.133E-06 -.202E-06 0.187E+01   -.758E-11 0.770E-11 -.194E+01   -.115E-16 -.124E-16 0.709E-01   -.127E-11 -.216E-08 0.152E-04
   -.133E-06 -.202E-06 0.187E+01   -.761E-11 0.770E-11 -.194E+01   0.471E-17 -.137E-16 0.709E-01   -.129E-11 -.216E-08 0.152E-04
   -.133E-06 0.202E-06 0.187E+01   0.159E-10 0.340E-11 -.194E+01   0.115E-16 0.875E-17 0.709E-01   -.102E-11 0.215E-08 0.152E-04
 -----------------------------------------------------------------------------------------------
   -.383E-05 -.218E-09 -.229E+01   0.526E-15 -.136E-12 -.115E-12   0.282E-16 0.271E-16 0.227E+01   0.118E-11 -.598E-12 -.198E-03
 
 
 POSITION                                       TOTAL-FORCE (eV/Angst)
 -----------------------------------------------------------------------------------
      2.08442     -1.20344      3.39133         0.000000      0.000000     -0.003628
      6.25326      6.01720     10.17095        -0.000000      0.000000     -0.003628
      6.25326      8.42408      6.78114        -0.000000     -0.000000     -0.003628
      8.33768      2.40688      3.39133         0.000000      0.000000     -0.003628
      8.33768      4.81376      6.78114        -0.000000     -0.000000     -0.003628
      4.16884     -4.81376      3.39133         0.000000      0.000000     -0.003628
      4.16884     -2.40688      0.00152        -0.000000     -0.000000     -0.003628
      8.33768     -4.81376     10.17095         0.000000      0.000000     -0.003628
      8.33768     -2.40688      0.00152        -0.000000      0.000000     -0.003628
      4.16884     -4.81376     10.17095         0.000000      0.000000     -0.003628
      4.16884     -2.40688      6.78114        -0.000000      0.000000     -0.003628
      6.25326     -1.20344      3.39133         0.000000      0.000000     -0.003628
      6.25326      1.20344      0.00152        -0.000000      0.000000     -0.003628
      6.25326     -6.01720      6.78114        -0.000000     -0.000000     -0.003628
      6.25326     -8.42408     10.17095         0.000000     -0.000000     -0.003628
      8.33768     -4.81376      3.39133         0.000000      0.000000     -0.003628
      6.25326     -1.20344     10.17095         0.000000      0.000000     -0.003628
      8.33768     -2.40688      6.78114         0.000000     -0.000000     -0.003628
      6.25326      6.01720      3.39133        -0.000000      0.000000     -0.003628
      2.08442      1.20344      0.00152        -0.000000     -0.000000     -0.003628
     10.42210      1.20344      6.78114        -0.000000      0.000000     -0.003628
     10.42210     -1.20344     10.17095         0.000000      0.000000     -0.003628
      2.08442     -1.20344     10.17095         0.000000     -0.000000     -0.003628
      2.08442      1.20344      6.78114        -0.000000     -0.000000     -0.003628
      8.33768      2.40688     10.17095         0.000000      0.000000     -0.003628
      6.25326      8.42408      0.00152        -0.000000     -0.000000     -0.003628
      6.25326     -8.42408      3.39133         0.000000      0.000000     -0.003628
      4.16884      4.81376      0.00152        -0.000000      0.000000     -0.003628
     10.42210      1.20344      0.00152        -0.000000     -0.000000     -0.003628
     10.42210     -1.20344      3.39133         0.000000      0.000000     -0.003628
      4.16884      2.40688     10.17095         0.000000     -0.000000     -0.003628
      4.16884      4.81376      6.78114        -0.000000     -0.000000     -0.003628
      6.25326     -6.01720      0.00152        -0.000000     -0.000000     -0.003628
      8.33768      4.81376      0.00152        -0.000000     -0.000000     -0.003628
      4.16884      2.40688      3.39133         0.000000      0.000000     -0.003628
      6.25326      1.20344      6.78114        -0.000000     -0.000000     -0.003628
      6.25326     -8.42408      5.94420         0.000000     -0.000000      0.003628
      6.25326     -6.01720      2.55439         0.000000      0.000000      0.003628
      8.33768     -4.81376      5.94420         0.000000     -0.000000      0.003628
      6.25326     -6.01720      9.33401        -0.000000     -0.000000      0.003628
      8.33768     -2.40688      2.55439        -0.000000      0.000000      0.003628
      8.33768     -4.81376     12.72382        -0.000000      0.000000      0.003628
      8.33768     -2.40688      9.33401        -0.000000      0.000000      0.003628
     10.42210     -1.20344      5.94420        -0.000000     -0.000000      0.003628
     10.42210      1.20344      2.55439         0.000000     -0.000000      0.003628
      6.25326     -8.42408     12.72382        -0.000000     -0.000000      0.003628
      8.33768      4.81376      9.33401         0.000000      0.000000      0.003628
      6.25326      1.20344      2.55439         0.000000      0.000000      0.003628
      8.33768      4.81376      2.55439         0.000000      0.000000      0.003628
      2.08442     -1.20344      5.94420         0.000000     -0.000000      0.003628
      2.08442      1.20344      2.55439         0.000000      0.000000      0.003628
      2.08442     -1.20344     12.72382        -0.000000     -0.000000      0.003628
      2.08442      1.20344      9.33401        -0.000000     -0.000000      0.003628
      4.16884      2.40688      5.94420         0.000000     -0.000000      0.003628
      4.16884      4.81376      2.55439         0.000000      0.000000      0.003628
      4.16884      2.40688     12.72382        -0.000000      0.000000      0.003628
      4.16884      4.81376      9.33401         0.000000      0.000000      0.003628
      6.25326      6.01720      5.94420        -0.000000     -0.000000      0.003628
      6.25326      8.42408      2.55439         0.000000      0.000000      0.003628
      6.25326      6.01720     12.72382        -0.000000     -0.000000      0.003628
      6.25326      8.42408      9.33401        -0.000000      0.000000      0.003628
      4.16884     -4.81376      5.94420         0.000000     -0.000000      0.003628
      4.16884     -2.40688      2.55439         0.000000      0.000000      0.003628
      4.16884     -4.81376     12.72382        -0.000000     -0.000000      0.003628
      4.16884     -2.40688      9.33401        -0.000000     -0.000000      0.003628
      6.25326     -1.20344      5.94420         0.000000     -0.000000      0.003628
     10.42210     -1.20344     12.72382        -0.000000     -0.000000      0.003628
      6.25326     -1.20344     12.72382        -0.000000      0.000000      0.003628
      6.25326      1.20344      9.33401         0.000000      0.000000      0.003628
      8.33768      2.40688      5.94420        -0.000000     -0.000000      0.003628
      8.33768      2.40688     12.72382        -0.000000     -0.000000      0.003628
     10.42210      1.20344      9.33401        -0.000000      0.000000      0.003628
 -----------------------------------------------------------------------------------
    total drift:                               -0.000004     -0.000000     -0.014252


--------------------------------------------------------------------------------------------------------



  FREE ENERGIE OF THE ION-ELECTRON SYSTEM (eV)
  ---------------------------------------------------
  free  energy   TOTEN  =      -221.07781949 eV

  energy  without entropy=     -221.07781949  energy(sigma->0) =     -221.07781949
 


--------------------------------------------------------------------------------------------------------


    POTLOK:  cpu time      0.1084: real time      0.1212


--------------------------------------------------------------------------------------------------------


     LOOP+:  cpu time   1986.0415: real time   2011.9855
    4ORBIT:  cpu time      0.0000: real time      0.0000

 total amount of memory used by VASP MPI-rank0   365744. kBytes
=======================================================================

   base      :      30000. kBytes
   nonl-proj :     182983. kBytes
   fftplans  :       8559. kBytes
   grid      :      35755. kBytes
   one-center:       1119. kBytes
   wavefun   :     107328. kBytes
 
  
  
 General timing and accounting informations for this job:
 ========================================================
  
                  Total CPU time used (sec):     2022.128
                            User time (sec):     2019.856
                          System time (sec):        2.271
                         Elapsed time (sec):     2120.528
  
                   Maximum memory used (kb):      612604.
                   Average memory used (kb):          N/A
  
                          Minor page faults:       135661
                          Major page faults:          169
                 Voluntary context switches:        55308
