<?xml version="1.0" encoding="ISO-8859-1"?>
<modeling>
 <generator>
  <i name="program" type="string">vasp </i>
  <i name="version" type="string">6.4.2  </i>
  <i name="subversion" type="string">20Jul23 (build Sep 17 2025 15:35:10) complex                          parallel </i>
  <i name="platform" type="string">LinuxIFC </i>
  <i name="date" type="string">2025 10 09 </i>
  <i name="time" type="string">12:27:15 </i>
 </generator>
 <incar>
  <i type="int" name="ISTART">     0</i>
  <i type="string" name="PREC">Accurate</i>
  <i type="int" name="ICHARG">     2</i>
  <i type="int" name="NELM">   100</i>
  <i name="EDIFF">      0.00000100</i>
  <i name="ENCUT">    400.00000000</i>
  <i type="logical" name="LREAL"> F  </i>
  <i type="int" name="ISMEAR">     0</i>
  <i name="SIGMA">      0.05000000</i>
  <i type="logical" name="LWAVE"> F  </i>
  <i type="logical" name="LCHARG"> F  </i>
  <i type="string" name="GGA">PE</i>
 </incar>
 <primitive_cell>
  <structure name="primitive_cell" >
   <crystal>
    <varray name="basis" >
     <v>       2.08441905      -3.61031970       0.00000000 </v>
     <v>       2.08441905       3.61031970       0.00000000 </v>
     <v>       0.00000000       0.00000000       6.77961741 </v>
    </varray>
    <i name="volume">    102.03892544 </i>
    <varray name="rec_basis" >
     <v>       0.23987499      -0.13849189       0.00000000 </v>
     <v>       0.23987499       0.13849189       0.00000000 </v>
     <v>       0.00000000       0.00000000       0.14750095 </v>
    </varray>
   </crystal>
   <varray name="positions" >
    <v>       0.66666667       0.33333333       0.50022437 </v>
    <v>       0.33333333       0.66666667       0.00022437 </v>
    <v>       0.66666667       0.33333333       0.87677563 </v>
    <v>       0.33333333       0.66666667       0.37677563 </v>
   </varray>
  </structure>
  <varray name="primitive_index" >
   <v type="int" >        1 </v>
   <v type="int" >       24 </v>
   <v type="int" >       50 </v>
   <v type="int" >       51 </v>
  </varray>
 </primitive_cell>
 <kpoints>
  <generation param="Gamma">
   <v type="int" name="divisions">       5        5        5 </v>
   <v name="usershift">      0.00000000       0.00000000       0.00000000 </v>
   <v name="genvec1">      0.20000000       0.00000000       0.00000000 </v>
   <v name="genvec2">      0.00000000       0.20000000       0.00000000 </v>
   <v name="genvec3">      0.00000000       0.00000000       0.20000000 </v>
   <v name="shift">      0.00000000       0.00000000       0.00000000 </v>
  </generation>
  <varray name="kpointlist" >
   <v>       0.00000000       0.00000000       0.00000000 </v>
   <v>       0.20000000      -0.00000000       0.00000000 </v>
   <v>       0.40000000       0.00000000       0.00000000 </v>
   <v>       0.20000000       0.20000000       0.00000000 </v>
   <v>       0.40000000       0.20000000       0.00000000 </v>
   <v>       0.00000000       0.00000000       0.20000000 </v>
   <v>       0.20000000      -0.00000000       0.20000000 </v>
   <v>       0.40000000       0.00000000       0.20000000 </v>
   <v>       0.20000000       0.20000000       0.20000000 </v>
   <v>       0.40000000       0.20000000       0.20000000 </v>
   <v>       0.00000000       0.00000000       0.40000000 </v>
   <v>       0.20000000      -0.00000000       0.40000000 </v>
   <v>       0.40000000       0.00000000       0.40000000 </v>
   <v>       0.20000000       0.20000000       0.40000000 </v>
   <v>       0.40000000       0.20000000       0.40000000 </v>
  </varray>
  <varray name="weights" >
   <v>       0.00800000 </v>
   <v>       0.04800000 </v>
   <v>       0.04800000 </v>
   <v>       0.04800000 </v>
   <v>       0.04800000 </v>
   <v>       0.01600000 </v>
   <v>       0.09600000 </v>
   <v>       0.09600000 </v>
   <v>       0.09600000 </v>
   <v>       0.09600000 </v>
   <v>       0.01600000 </v>
   <v>       0.09600000 </v>
   <v>       0.09600000 </v>
   <v>       0.09600000 </v>
   <v>       0.09600000 </v>
  </varray>
 </kpoints>
 <parameters>
  <separator name="general" >
   <i type="string" name="SYSTEM">unknown system</i>
   <i type="logical" name="LCOMPAT"> F  </i>
  </separator>
  <separator name="electronic" >
   <i type="string" name="PREC">accura</i>
   <i name="ENMAX">    400.00000000</i>
   <i name="ENAUG">    456.10600000</i>
   <i name="EDIFF">      0.00000100</i>
   <i type="int" name="IALGO">    38</i>
   <i type="int" name="IWAVPR">    10</i>
   <i type="int" name="NBANDS">   416</i>
   <i type="int" name="NBANDSLOW">    -1</i>
   <i type="int" name="NBANDSHIGH">    -1</i>
   <i name="NELECT">    648.00000000</i>
   <i type="int" name="TURBO">     0</i>
   <i type="int" name="IRESTART">     0</i>
   <i type="int" name="NREBOOT">     0</i>
   <i type="int" name="NMIN">     0</i>
   <i name="EREF">      0.00000000</i>
   <separator name="electronic smearing" >
    <i type="int" name="ISMEAR">     0</i>
    <i name="SIGMA">      0.05000000</i>
    <i name="KSPACING">      0.50000000</i>
    <i type="logical" name="KGAMMA"> T  </i>
    <i type="logical" name="KBLOWUP"> T  </i>
   </separator>
   <separator name="electronic projectors" >
    <i type="logical" name="LREAL"> F  </i>
    <v name="ROPT">      0.00000000      0.00000000</v>
    <i type="int" name="LMAXPAW">  -100</i>
    <i type="int" name="LMAXMIX">     2</i>
    <i type="logical" name="NLSPLINE"> F  </i>
   </separator>
   <separator name="electronic startup" >
    <i type="int" name="ISTART">     0</i>
    <i type="int" name="ICHARG">     2</i>
    <i type="int" name="INIWAV">     1</i>
   </separator>
   <separator name="electronic spin" >
    <i type="int" name="ISPIN">     1</i>
    <i type="logical" name="LNONCOLLINEAR"> F  </i>
    <v name="MAGMOM">      1.00000000      1.00000000      1.00000000      1.00000000      1.00000000      1.00000000      1.00000000      1.00000000      1.00000000      1.00000000      1.00000000      1.00000000      1.00000000      1.00000000      1.00000000      1.00000000      1.00000000      1.00000000      1.00000000      1.00000000
      1.00000000      1.00000000      1.00000000      1.00000000      1.00000000      1.00000000      1.00000000      1.00000000      1.00000000      1.00000000      1.00000000      1.00000000      1.00000000      1.00000000      1.00000000      1.00000000      1.00000000      1.00000000      1.00000000      1.00000000
      1.00000000      1.00000000      1.00000000      1.00000000      1.00000000      1.00000000      1.00000000      1.00000000      1.00000000      1.00000000      1.00000000      1.00000000      1.00000000      1.00000000      1.00000000      1.00000000      1.00000000      1.00000000      1.00000000      1.00000000
      1.00000000      1.00000000      1.00000000      1.00000000      1.00000000      1.00000000      1.00000000      1.00000000      1.00000000      1.00000000      1.00000000      1.00000000</v>
    <i name="NUPDOWN">     -1.00000000</i>
    <i type="logical" name="LSORBIT"> F  </i>
    <v name="SAXIS">      0.00000000      0.00000000      1.00000000</v>
    <i type="logical" name="LSPIRAL"> F  </i>
    <v name="QSPIRAL">      0.00000000      0.00000000      0.00000000</v>
    <i type="logical" name="LZEROZ"> F  </i>
   </separator>
   <separator name="electronic exchange-correlation" >
    <i type="logical" name="LASPH"> F  </i>
    <i type="logical" name="LMETAGGA"> F  </i>
   </separator>
   <separator name="electronic convergence" >
    <i type="int" name="NELM">   100</i>
    <i type="int" name="NELMDL">    -5</i>
    <i type="int" name="NELMIN">     2</i>
    <i name="ENINI">    400.00000000</i>
    <separator name="electronic convergence detail" >
     <i type="logical" name="LDIAG"> T  </i>
     <i type="logical" name="LSUBROT"> F  </i>
     <i name="WEIMIN">      0.00000000</i>
     <i name="EBREAK">      0.00000000</i>
     <i name="DEPER">      0.30000000</i>
     <i type="int" name="NRMM">     4</i>
     <i name="TIME">      0.40000000</i>
    </separator>
   </separator>
   <separator name="electronic mixer" >
    <i name="AMIX">      0.40000000</i>
    <i name="BMIX">      1.00000000</i>
    <i name="AMIN">      0.10000000</i>
    <i name="AMIX_MAG">      1.60000000</i>
    <i name="BMIX_MAG">      1.00000000</i>
    <separator name="electronic mixer details" >
     <i type="int" name="IMIX">     4</i>
     <i type="logical" name="MIXFIRST"> F  </i>
     <i type="int" name="MAXMIX">   -45</i>
     <i name="WC">    100.00000000</i>
     <i type="int" name="INIMIX">     1</i>
     <i type="int" name="MIXPRE">     1</i>
     <i type="int" name="MREMOVE">     5</i>
    </separator>
   </separator>
   <separator name="electronic dipolcorrection" >
    <i type="logical" name="LDIPOL"> F  </i>
    <i type="logical" name="LMONO"> F  </i>
    <i type="int" name="IDIPOL">     0</i>
    <i name="EPSILON">      1.00000000</i>
    <v name="DIPOL">   -100.00000000   -100.00000000   -100.00000000</v>
    <i name="EFIELD">      0.00000000</i>
   </separator>
  </separator>
  <separator name="grids" >
   <i type="int" name="NGX">    84</i>
   <i type="int" name="NGY">    84</i>
   <i type="int" name="NGZ">    90</i>
   <i type="int" name="NGXF">   168</i>
   <i type="int" name="NGYF">   168</i>
   <i type="int" name="NGZF">   180</i>
   <i type="logical" name="ADDGRID"> F  </i>
  </separator>
  <separator name="ionic" >
   <i type="int" name="NSW">     0</i>
   <i type="int" name="IBRION">    -1</i>
   <i type="int" name="MDALGO">     0</i>
   <i type="int" name="ISIF">     2</i>
   <i name="PSTRESS">      0.00000000</i>
   <i name="EDIFFG">      0.00001000</i>
   <i type="int" name="NFREE">     0</i>
   <i name="POTIM">      0.50000000</i>
   <i name="SMASS">     -3.00000000</i>
   <i name="SCALEE">      1.00000000</i>
  </separator>
  <separator name="ionic md" >
   <i name="TEBEG">      0.00010000</i>
   <i name="TEEND">      0.00010000</i>
   <i type="int" name="NBLOCK">     1</i>
   <i type="int" name="KBLOCK">     1</i>
   <i type="int" name="NPACO">   256</i>
   <i name="APACO">     10.00000000</i>
  </separator>
  <separator name="symmetry" >
   <i type="int" name="ISYM">     2</i>
   <i name="SYMPREC">      0.00001000</i>
  </separator>
  <separator name="dos" >
   <i type="int" name="LORBIT">     0</i>
   <v name="RWIGS">     -1.00000000     -1.00000000</v>
   <i type="int" name="NEDOS">   301</i>
   <i name="EMIN">     10.00000000</i>
   <i name="EMAX">    -10.00000000</i>
   <i name="EFERMI">      0.00000000</i>
  </separator>
  <separator name="writing" >
   <i type="int" name="NWRITE">     2</i>
   <i type="logical" name="LWAVE"> F  </i>
   <i type="logical" name="LDOWNSAMPLE"> F  </i>
   <i type="logical" name="LCHARG"> F  </i>
   <i type="logical" name="LPARD"> F  </i>
   <i type="logical" name="LVTOT"> F  </i>
   <i type="logical" name="LVHAR"> F  </i>
   <i type="logical" name="LELF"> F  </i>
   <i type="logical" name="LOPTICS"> F  </i>
   <v name="STM">      0.00000000      0.00000000      0.00000000      0.00000000      0.00000000      0.00000000      0.00000000</v>
  </separator>
  <separator name="performance" >
   <i type="int" name="NPAR">    32</i>
   <i type="int" name="NSIM">     4</i>
   <i type="int" name="NBLK">    -1</i>
   <i type="logical" name="LPLANE"> T  </i>
   <i type="logical" name="LSCALAPACK"> T  </i>
   <i type="logical" name="LSCAAWARE"> F  </i>
   <i type="logical" name="LSCALU"> F  </i>
   <i type="logical" name="LASYNC"> F  </i>
   <i type="logical" name="LORBITALREAL"> F  </i>
  </separator>
  <separator name="miscellaneous" >
   <i type="int" name="IDIOT">     3</i>
   <i type="int" name="PHON_NSTRUCT">    -1</i>
   <i type="logical" name="LMUSIC"> F  </i>
   <v name="POMASS">    112.41100000     32.06600000</v>
   <v name="DARWINR">      0.00000000      0.00000000</v>
   <v name="DARWINV">      1.00000000      1.00000000</v>
   <i type="logical" name="LCORR"> T  </i>
  </separator>
  <i type="logical" name="GGA_COMPAT"> T  </i>
  <i type="logical" name="LBERRY"> F  </i>
  <i type="int" name="ICORELEVEL">     0</i>
  <i type="logical" name="LDAU"> F  </i>
  <i type="int" name="I_CONSTRAINED_M">     0</i>
  <separator name="electronic exchange-correlation" >
   <i type="string" name="GGA">PE</i>
   <i type="int" name="VOSKOWN">     0</i>
   <i type="logical" name="LHFCALC"> F  </i>
   <i type="string" name="PRECFOCK"></i>
   <i type="logical" name="LSYMGRAD"> F  </i>
   <i type="logical" name="LHFONE"> F  </i>
   <i type="logical" name="LRHFCALC"> F  </i>
   <i type="logical" name="LTHOMAS"> F  </i>
   <i type="logical" name="LMODELHF"> F  </i>
   <i type="logical" name="LFOCKACE"> F  </i>
   <i name="ENCUT4O">     -1.00000000</i>
   <i type="int" name="EXXOEP">     0</i>
   <i type="int" name="FOURORBIT">     0</i>
   <i name="AEXX">      0.00000000</i>
   <i name="HFALPHA">      0.00000000</i>
   <i name="MCALPHA">      0.00000000</i>
   <i name="ALDAX">      1.00000000</i>
   <i name="AGGAX">      1.00000000</i>
   <i name="ALDAC">      1.00000000</i>
   <i name="AGGAC">      1.00000000</i>
   <i type="int" name="NKREDX">     1</i>
   <i type="int" name="NKREDY">     1</i>
   <i type="int" name="NKREDZ">     1</i>
   <i type="logical" name="SHIFTRED"> F  </i>
   <i type="logical" name="ODDONLY"> F  </i>
   <i type="logical" name="EVENONLY"> F  </i>
   <i type="int" name="LMAXFOCK">     0</i>
   <i type="int" name="NMAXFOCKAE">     0</i>
   <i type="logical" name="LFOCKAEDFT"> F  </i>
   <i name="HFSCREEN">      0.00000000</i>
   <i name="HFSCREENC">      0.00000000</i>
   <i type="int" name="NBANDSGWLOW">     0</i>
  </separator>
  <separator name="vdW DFT" >
   <i type="logical" name="LUSE_VDW"> F  </i>
   <i type="int" name="IVDW_NL">     1</i>
   <i type="logical" name="LSPIN_VDW"> F  </i>
   <i name="Zab_VDW">     -0.84910000</i>
   <i name="PARAM1">      0.12340000</i>
   <i name="PARAM2">      1.00000000</i>
   <i name="PARAM3">      0.00000000</i>
  </separator>
  <separator name="model GW" >
   <i type="int" name="MODEL_GW">     0</i>
   <i name="MODEL_EPS0">     15.30583882</i>
   <i name="MODEL_ALPHA">      1.00000000</i>
  </separator>
  <separator name="linear response parameters" >
   <i type="logical" name="LEPSILON"> F  </i>
   <i type="logical" name="LRPA"> F  </i>
   <i type="logical" name="LNABLA"> F  </i>
   <i type="logical" name="LVEL"> F  </i>
   <i name="CSHIFT">      0.10000000</i>
   <i name="OMEGAMAX">     -1.00000000</i>
   <i name="DEG_THRESHOLD">      0.00200000</i>
   <i name="RTIME">     -0.10000000</i>
   <i name="WPLASMAI">      0.00000000</i>
   <v name="DFIELD">      0.00000000      0.00000000      0.00000000</v>
   <v name="WPLASMA">      0.00000000      0.00000000      0.00000000      0.00000000      0.00000000      0.00000000      0.00000000      0.00000000      0.00000000</v>
  </separator>
  <separator name="orbital magnetization" >
   <i type="logical" name="NUCIND"> F  </i>
   <v name="MAGPOS">      0.00000000      0.00000000      0.00000000</v>
   <i type="logical" name="LNICSALL"> T  </i>
   <i type="logical" name="ORBITALMAG"> F  </i>
   <i type="logical" name="LMAGBLOCH"> F  </i>
   <i type="logical" name="LCHIMAG"> F  </i>
   <i type="logical" name="LGAUGE"> T  </i>
   <i type="int" name="MAGATOM">     0</i>
   <v name="MAGDIPOL">      0.00000000      0.00000000      0.00000000</v>
   <v name="AVECCONST">      0.00000000      0.00000000      0.00000000</v>
  </separator>
  <separator name="response functions" >
   <i type="logical" name="LALL_IN_ONE"> F  </i>
   <i type="int" name="IALL_IN_ONE">    -1</i>
   <i type="int" name="NBANDS_WAVE">    -1</i>
   <i type="logical" name="LFINITE_TEMPERATURE"> F  </i>
   <i type="logical" name="LADDER"> F  </i>
   <i type="logical" name="LRPAFORCE"> F  </i>
   <i type="logical" name="LFXC"> F  </i>
   <i type="logical" name="LHARTREE"> T  </i>
   <i type="int" name="IBSE">     0</i>
   <v type="int" name="KPOINT">    -1     0     0     0</v>
   <i type="logical" name="LTCTC"> F  </i>
   <i type="logical" name="LTCTE"> F  </i>
   <i type="logical" name="LTETE"> F  </i>
   <i type="logical" name="LTRIPLET"> F  </i>
   <i type="logical" name="LFXCEPS"> F  </i>
   <i type="logical" name="LFXHEG"> F  </i>
   <i type="int" name="NATURALO">     2</i>
   <i type="logical" name="LHOLEGF"> F  </i>
   <i type="logical" name="L2ORDER"> F  </i>
   <i type="logical" name="LDMP1"> F  </i>
   <i type="logical" name="LMP2LT"> F  </i>
   <i type="logical" name="LSMP2LT"> F  </i>
   <i type="logical" name="LGWLF"> F  </i>
   <i name="ENCUTGW">     -1.60000002</i>
   <i name="ENCUTGWSOFT">     -1.60000002</i>
   <i name="ENCUTLF">     -1.00000000</i>
   <i type="logical" name="LESF_SPLINES"> F  </i>
   <i type="int" name="LMAXMP2">    -1</i>
   <i name="SCISSOR">      0.00000000</i>
   <i type="int" name="NOMEGA">     0</i>
   <i type="int" name="NOMEGAR">     0</i>
   <i type="int" name="NBANDSGW">    -1</i>
   <i type="int" name="NBANDSO">    -1</i>
   <i type="int" name="NBANDSV">    -1</i>
   <i type="int" name="NELMGW">     1</i>
   <i type="int" name="NELMHF">     1</i>
   <i type="int" name="DIM">     3</i>
   <i type="int" name="IESPILON">     4</i>
   <i type="int" name="ANTIRES">     0</i>
   <i name="OMEGAMAX">    -30.00000000</i>
   <i name="OMEGAMIN">    -30.00000000</i>
   <i name="OMEGATL">   -200.00000000</i>
   <i type="int" name="OMEGAGRID">     0</i>
   <i name="CSHIFT">     -0.10000000</i>
   <i type="logical" name="LSELFENERGY"> F  </i>
   <i type="logical" name="LSPECTRAL"> F  </i>
   <i type="logical" name="LSPECTRALGW"> F  </i>
   <i type="logical" name="LSINGLES"> F  </i>
   <i type="logical" name="LFERMIGW"> F  </i>
   <i type="logical" name="ODDONLYGW"> F  </i>
   <i type="logical" name="EVENONLYGW"> F  </i>
   <i type="int" name="NKREDLFX">     1</i>
   <i type="int" name="NKREDLFY">     1</i>
   <i type="int" name="NKREDLFZ">     1</i>
   <i type="int" name="MAXMEM">  2800</i>
   <i type="int" name="TELESCOPE">     0</i>
   <i type="int" name="NTAUPAR">    -1</i>
   <i type="int" name="NOMEGAPAR">    -1</i>
   <i name="DAMP_NEWTON">      0.80000001</i>
   <i name="LAMBDA">      1.00000000</i>
  </separator>
  <separator name="External order field" >
   <i name="OFIELD_KAPPA">      0.00000000</i>
   <v name="OFIELD_K">      0.00000000      0.00000000      0.00000000</v>
   <i name="OFIELD_Q6_NEAR">      0.00000000</i>
   <i name="OFIELD_Q6_FAR">      0.00000000</i>
   <i name="OFIELD_A">      0.00000000</i>
  </separator>
  <separator name="optional k-points parameters" >
   <i type="int" name="KPOINTS_OPT_MODE">     1</i>
   <i type="logical" name="LKPOINTS_OPT"> F  </i>
  </separator>
 </parameters>
 <atominfo>
  <atoms>      72 </atoms>
  <types>       2 </types>
  <array name="atoms" >
   <dimension dim="1">ion</dimension>
   <field type="string">element</field>
   <field type="int">atomtype</field>
   <set>
    <rc><c>Cd</c><c>   1</c></rc>
    <rc><c>Cd</c><c>   1</c></rc>
    <rc><c>Cd</c><c>   1</c></rc>
    <rc><c>Cd</c><c>   1</c></rc>
    <rc><c>Cd</c><c>   1</c></rc>
    <rc><c>Cd</c><c>   1</c></rc>
    <rc><c>Cd</c><c>   1</c></rc>
    <rc><c>Cd</c><c>   1</c></rc>
    <rc><c>Cd</c><c>   1</c></rc>
    <rc><c>Cd</c><c>   1</c></rc>
    <rc><c>Cd</c><c>   1</c></rc>
    <rc><c>Cd</c><c>   1</c></rc>
    <rc><c>Cd</c><c>   1</c></rc>
    <rc><c>Cd</c><c>   1</c></rc>
    <rc><c>Cd</c><c>   1</c></rc>
    <rc><c>Cd</c><c>   1</c></rc>
    <rc><c>Cd</c><c>   1</c></rc>
    <rc><c>Cd</c><c>   1</c></rc>
    <rc><c>Cd</c><c>   1</c></rc>
    <rc><c>Cd</c><c>   1</c></rc>
    <rc><c>Cd</c><c>   1</c></rc>
    <rc><c>Cd</c><c>   1</c></rc>
    <rc><c>Cd</c><c>   1</c></rc>
    <rc><c>Cd</c><c>   1</c></rc>
    <rc><c>Cd</c><c>   1</c></rc>
    <rc><c>Cd</c><c>   1</c></rc>
    <rc><c>Cd</c><c>   1</c></rc>
    <rc><c>Cd</c><c>   1</c></rc>
    <rc><c>Cd</c><c>   1</c></rc>
    <rc><c>Cd</c><c>   1</c></rc>
    <rc><c>Cd</c><c>   1</c></rc>
    <rc><c>Cd</c><c>   1</c></rc>
    <rc><c>Cd</c><c>   1</c></rc>
    <rc><c>Cd</c><c>   1</c></rc>
    <rc><c>Cd</c><c>   1</c></rc>
    <rc><c>Cd</c><c>   1</c></rc>
    <rc><c>S </c><c>   2</c></rc>
    <rc><c>S </c><c>   2</c></rc>
    <rc><c>S </c><c>   2</c></rc>
    <rc><c>S </c><c>   2</c></rc>
    <rc><c>S </c><c>   2</c></rc>
    <rc><c>S </c><c>   2</c></rc>
    <rc><c>S </c><c>   2</c></rc>
    <rc><c>S </c><c>   2</c></rc>
    <rc><c>S </c><c>   2</c></rc>
    <rc><c>S </c><c>   2</c></rc>
    <rc><c>S </c><c>   2</c></rc>
    <rc><c>S </c><c>   2</c></rc>
    <rc><c>S </c><c>   2</c></rc>
    <rc><c>S </c><c>   2</c></rc>
    <rc><c>S </c><c>   2</c></rc>
    <rc><c>S </c><c>   2</c></rc>
    <rc><c>S </c><c>   2</c></rc>
    <rc><c>S </c><c>   2</c></rc>
    <rc><c>S </c><c>   2</c></rc>
    <rc><c>S </c><c>   2</c></rc>
    <rc><c>S </c><c>   2</c></rc>
    <rc><c>S </c><c>   2</c></rc>
    <rc><c>S </c><c>   2</c></rc>
    <rc><c>S </c><c>   2</c></rc>
    <rc><c>S </c><c>   2</c></rc>
    <rc><c>S </c><c>   2</c></rc>
    <rc><c>S </c><c>   2</c></rc>
    <rc><c>S </c><c>   2</c></rc>
    <rc><c>S </c><c>   2</c></rc>
    <rc><c>S </c><c>   2</c></rc>
    <rc><c>S </c><c>   2</c></rc>
    <rc><c>S </c><c>   2</c></rc>
    <rc><c>S </c><c>   2</c></rc>
    <rc><c>S </c><c>   2</c></rc>
    <rc><c>S </c><c>   2</c></rc>
    <rc><c>S </c><c>   2</c></rc>
   </set>
  </array>
  <array name="atomtypes" >
   <dimension dim="1">type</dimension>
   <field type="int">atomspertype</field>
   <field type="string">element</field>
   <field>mass</field>
   <field>valence</field>
   <field type="string">pseudopotential</field>
   <set>
    <rc><c>  36</c><c>Cd</c><c>    112.41100000</c><c>     12.00000000</c><c>  PAW_PBE Cd 06Sep2000                  </c></rc>
    <rc><c>  36</c><c>S </c><c>     32.06600000</c><c>      6.00000000</c><c>  PAW_PBE S 06Sep2000                   </c></rc>
   </set>
  </array>
 </atominfo>
 <structure name="initialpos" >
  <crystal>
   <varray name="basis" >
    <v>       6.25325715     -10.83095910       0.00000000 </v>
    <v>       6.25325715      10.83095910       0.00000000 </v>
    <v>       0.00000000       0.00000000      13.55923482 </v>
   </varray>
   <i name="volume">   1836.70065798 </i>
   <varray name="rec_basis" >
    <v>       0.07995833      -0.04616396       0.00000000 </v>
    <v>       0.07995833       0.04616396       0.00000000 </v>
    <v>       0.00000000       0.00000000       0.07375047 </v>
   </varray>
  </crystal>
  <varray name="positions" >
   <v>       0.22222222       0.11111111       0.25011218 </v>
   <v>       0.22222222       0.77777778       0.75011218 </v>
   <v>       0.11111111       0.88888889       0.50011218 </v>
   <v>       0.55555556       0.77777778       0.25011218 </v>
   <v>       0.44444444       0.88888889       0.50011218 </v>
   <v>       0.55555556       0.11111111       0.25011218 </v>
   <v>       0.44444444       0.22222222       0.00011218 </v>
   <v>       0.88888889       0.44444444       0.75011218 </v>
   <v>       0.77777778       0.55555556       0.00011218 </v>
   <v>       0.55555556       0.11111111       0.75011218 </v>
   <v>       0.44444444       0.22222222       0.50011218 </v>
   <v>       0.55555556       0.44444444       0.25011218 </v>
   <v>       0.44444444       0.55555556       0.00011218 </v>
   <v>       0.77777778       0.22222222       0.50011218 </v>
   <v>       0.88888889       0.11111111       0.75011218 </v>
   <v>       0.88888889       0.44444444       0.25011218 </v>
   <v>       0.55555556       0.44444444       0.75011218 </v>
   <v>       0.77777778       0.55555556       0.50011218 </v>
   <v>       0.22222222       0.77777778       0.25011218 </v>
   <v>       0.11111111       0.22222222       0.00011218 </v>
   <v>       0.77777778       0.88888889       0.50011218 </v>
   <v>       0.88888889       0.77777778       0.75011218 </v>
   <v>       0.22222222       0.11111111       0.75011218 </v>
   <v>       0.11111111       0.22222222       0.50011218 </v>
   <v>       0.55555556       0.77777778       0.75011218 </v>
   <v>       0.11111111       0.88888889       0.00011218 </v>
   <v>       0.88888889       0.11111111       0.25011218 </v>
   <v>       0.11111111       0.55555556       0.00011218 </v>
   <v>       0.77777778       0.88888889       0.00011218 </v>
   <v>       0.88888889       0.77777778       0.25011218 </v>
   <v>       0.22222222       0.44444444       0.75011218 </v>
   <v>       0.11111111       0.55555556       0.50011218 </v>
   <v>       0.77777778       0.22222222       0.00011218 </v>
   <v>       0.44444444       0.88888889       0.00011218 </v>
   <v>       0.22222222       0.44444444       0.25011218 </v>
   <v>       0.44444444       0.55555556       0.50011218 </v>
   <v>       0.88888889       0.11111111       0.43838781 </v>
   <v>       0.77777778       0.22222222       0.18838781 </v>
   <v>       0.88888889       0.44444444       0.43838781 </v>
   <v>       0.77777778       0.22222222       0.68838781 </v>
   <v>       0.77777778       0.55555556       0.18838781 </v>
   <v>       0.88888889       0.44444444       0.93838781 </v>
   <v>       0.77777778       0.55555556       0.68838781 </v>
   <v>       0.88888889       0.77777778       0.43838781 </v>
   <v>       0.77777778       0.88888889       0.18838781 </v>
   <v>       0.88888889       0.11111111       0.93838781 </v>
   <v>       0.44444444       0.88888889       0.68838781 </v>
   <v>       0.44444444       0.55555556       0.18838781 </v>
   <v>       0.44444444       0.88888889       0.18838781 </v>
   <v>       0.22222222       0.11111111       0.43838781 </v>
   <v>       0.11111111       0.22222222       0.18838781 </v>
   <v>       0.22222222       0.11111111       0.93838781 </v>
   <v>       0.11111111       0.22222222       0.68838781 </v>
   <v>       0.22222222       0.44444444       0.43838781 </v>
   <v>       0.11111111       0.55555556       0.18838781 </v>
   <v>       0.22222222       0.44444444       0.93838781 </v>
   <v>       0.11111111       0.55555556       0.68838781 </v>
   <v>       0.22222222       0.77777778       0.43838781 </v>
   <v>       0.11111111       0.88888889       0.18838781 </v>
   <v>       0.22222222       0.77777778       0.93838781 </v>
   <v>       0.11111111       0.88888889       0.68838781 </v>
   <v>       0.55555556       0.11111111       0.43838781 </v>
   <v>       0.44444444       0.22222222       0.18838781 </v>
   <v>       0.55555556       0.11111111       0.93838781 </v>
   <v>       0.44444444       0.22222222       0.68838781 </v>
   <v>       0.55555556       0.44444444       0.43838781 </v>
   <v>       0.88888889       0.77777778       0.93838781 </v>
   <v>       0.55555556       0.44444444       0.93838781 </v>
   <v>       0.44444444       0.55555556       0.68838781 </v>
   <v>       0.55555556       0.77777778       0.43838781 </v>
   <v>       0.55555556       0.77777778       0.93838781 </v>
   <v>       0.77777778       0.88888889       0.68838781 </v>
  </varray>
 </structure>
 <calculation>
  <scstep>
   <time name="dav">  104.69  108.63</time>
   <time name="total">  105.37  109.75</time>
   <energy>
    <i name="alphaZ">   2675.77335074 </i>
    <i name="ewald"> -41363.78645763 </i>
    <i name="hartreedc"> -16920.60810503 </i>
    <i name="XCdc">    632.08754442 </i>
    <i name="pawpsdc">  50910.12673542 </i>
    <i name="pawaedc"> -49579.16223443 </i>
    <i name="eentropy">     -0.02572033 </i>
    <i name="bandstr">   1231.25199695 </i>
    <i name="atom">  56519.19489806 </i>
    <i name="e_fr_energy">   4104.85200818 </i>
    <i name="e_wo_entrp">   4104.87772851 </i>
    <i name="e_0_energy">   4104.86486834 </i>
   </energy>
  </scstep>
  <scstep>
   <time name="dav">  110.46  111.79</time>
   <time name="total">  110.46  111.79</time>
   <energy>
    <i name="e_fr_energy">     44.38643091 </i>
    <i name="e_wo_entrp">     44.38643091 </i>
    <i name="e_0_energy">     44.38643091 </i>
   </energy>
  </scstep>
  <scstep>
   <time name="dav">  112.46  114.38</time>
   <time name="total">  112.47  114.38</time>
   <energy>
    <i name="e_fr_energy">   -235.87611082 </i>
    <i name="e_wo_entrp">   -235.87611082 </i>
    <i name="e_0_energy">   -235.87611082 </i>
   </energy>
  </scstep>
  <scstep>
   <time name="dav">  111.19  112.02</time>
   <time name="total">  111.19  112.02</time>
   <energy>
    <i name="e_fr_energy">   -240.71079899 </i>
    <i name="e_wo_entrp">   -240.71079899 </i>
    <i name="e_0_energy">   -240.71079899 </i>
   </energy>
  </scstep>
  <scstep>
   <time name="dav">  112.06  113.06</time>
   <time name="total">  114.74  115.81</time>
   <energy>
    <i name="e_fr_energy">   -240.81137270 </i>
    <i name="e_wo_entrp">   -240.81137270 </i>
    <i name="e_0_energy">   -240.81137270 </i>
   </energy>
  </scstep>
  <scstep>
   <time name="dav">  122.19  124.01</time>
   <time name="total">  125.07  126.93</time>
   <energy>
    <i name="e_fr_energy">   -221.40791828 </i>
    <i name="e_wo_entrp">   -221.40791828 </i>
    <i name="e_0_energy">   -221.40791828 </i>
   </energy>
  </scstep>
  <scstep>
   <time name="dav">  109.04  110.80</time>
   <time name="total">  111.85  113.71</time>
   <energy>
    <i name="e_fr_energy">   -221.36549670 </i>
    <i name="e_wo_entrp">   -221.36549670 </i>
    <i name="e_0_energy">   -221.36549670 </i>
   </energy>
  </scstep>
  <scstep>
   <time name="dav">  110.05  111.01</time>
   <time name="total">  113.00  113.99</time>
   <energy>
    <i name="e_fr_energy">   -221.08038803 </i>
    <i name="e_wo_entrp">   -221.08038803 </i>
    <i name="e_0_energy">   -221.08038803 </i>
   </energy>
  </scstep>
  <scstep>
   <time name="dav">  109.88  110.86</time>
   <time name="total">  112.63  113.63</time>
   <energy>
    <i name="e_fr_energy">   -221.07595526 </i>
    <i name="e_wo_entrp">   -221.07595526 </i>
    <i name="e_0_energy">   -221.07595526 </i>
   </energy>
  </scstep>
  <scstep>
   <time name="dav">  110.22  111.52</time>
   <time name="total">  112.98  114.30</time>
   <energy>
    <i name="e_fr_energy">   -221.07409960 </i>
    <i name="e_wo_entrp">   -221.07409960 </i>
    <i name="e_0_energy">   -221.07409960 </i>
   </energy>
  </scstep>
  <scstep>
   <time name="dav">  111.11  112.21</time>
   <time name="total">  114.24  115.53</time>
   <energy>
    <i name="e_fr_energy">   -221.07585088 </i>
    <i name="e_wo_entrp">   -221.07585088 </i>
    <i name="e_0_energy">   -221.07585088 </i>
   </energy>
  </scstep>
  <scstep>
   <time name="dav">  105.97  107.14</time>
   <time name="total">  108.95  110.15</time>
   <energy>
    <i name="e_fr_energy">   -221.07758618 </i>
    <i name="e_wo_entrp">   -221.07758618 </i>
    <i name="e_0_energy">   -221.07758618 </i>
   </energy>
  </scstep>
  <scstep>
   <time name="dav">  103.10  103.92</time>
   <time name="total">  105.77  106.61</time>
   <energy>
    <i name="e_fr_energy">   -221.07780638 </i>
    <i name="e_wo_entrp">   -221.07780638 </i>
    <i name="e_0_energy">   -221.07780638 </i>
   </energy>
  </scstep>
  <scstep>
   <time name="dav">  114.62  116.07</time>
   <time name="total">  117.67  119.15</time>
   <energy>
    <i name="e_fr_energy">   -221.07781199 </i>
    <i name="e_wo_entrp">   -221.07781199 </i>
    <i name="e_0_energy">   -221.07781199 </i>
   </energy>
  </scstep>
  <scstep>
   <time name="dav">  106.20  107.41</time>
   <time name="total">  109.46  110.69</time>
   <energy>
    <i name="e_fr_energy">   -221.07781676 </i>
    <i name="e_wo_entrp">   -221.07781676 </i>
    <i name="e_0_energy">   -221.07781676 </i>
   </energy>
  </scstep>
  <scstep>
   <time name="dav">  108.09  109.46</time>
   <time name="total">  111.01  112.43</time>
   <energy>
    <i name="e_fr_energy">   -221.07781878 </i>
    <i name="e_wo_entrp">   -221.07781878 </i>
    <i name="e_0_energy">   -221.07781878 </i>
   </energy>
  </scstep>
  <scstep>
   <time name="dav">   85.63   86.36</time>
   <time name="total">   85.76   86.49</time>
   <energy>
    <i name="alphaZ">   2675.77335074 </i>
    <i name="ewald"> -41363.78645763 </i>
    <i name="hartreedc"> -16862.11839601 </i>
    <i name="XCdc">    643.99112332 </i>
    <i name="pawpsdc">  66820.67946901 </i>
    <i name="pawaedc"> -65462.88449745 </i>
    <i name="eentropy">     -0.00000000 </i>
    <i name="bandstr">  -3191.92730953 </i>
    <i name="atom">  56519.19489806 </i>
    <i name="e_fr_energy">   -221.07781949 </i>
    <i name="e_wo_entrp">   -221.07781949 </i>
    <i name="e_0_energy">   -221.07781949 </i>
   </energy>
  </scstep>
  <structure>
   <crystal>
    <varray name="basis" >
     <v>       6.25325715     -10.83095910       0.00000000 </v>
     <v>       6.25325715      10.83095910       0.00000000 </v>
     <v>       0.00000000       0.00000000      13.55923482 </v>
    </varray>
    <i name="volume">   1836.70065798 </i>
    <varray name="rec_basis" >
     <v>       0.07995833      -0.04616396       0.00000000 </v>
     <v>       0.07995833       0.04616396       0.00000000 </v>
     <v>       0.00000000       0.00000000       0.07375047 </v>
    </varray>
   </crystal>
   <varray name="positions" >
    <v>       0.22222222       0.11111111       0.25011218 </v>
    <v>       0.22222222       0.77777778       0.75011218 </v>
    <v>       0.11111111       0.88888889       0.50011218 </v>
    <v>       0.55555556       0.77777778       0.25011218 </v>
    <v>       0.44444444       0.88888889       0.50011218 </v>
    <v>       0.55555556       0.11111111       0.25011218 </v>
    <v>       0.44444444       0.22222222       0.00011218 </v>
    <v>       0.88888889       0.44444444       0.75011218 </v>
    <v>       0.77777778       0.55555556       0.00011218 </v>
    <v>       0.55555556       0.11111111       0.75011218 </v>
    <v>       0.44444444       0.22222222       0.50011218 </v>
    <v>       0.55555556       0.44444444       0.25011218 </v>
    <v>       0.44444444       0.55555556       0.00011218 </v>
    <v>       0.77777778       0.22222222       0.50011218 </v>
    <v>       0.88888889       0.11111111       0.75011218 </v>
    <v>       0.88888889       0.44444444       0.25011218 </v>
    <v>       0.55555556       0.44444444       0.75011218 </v>
    <v>       0.77777778       0.55555556       0.50011218 </v>
    <v>       0.22222222       0.77777778       0.25011218 </v>
    <v>       0.11111111       0.22222222       0.00011218 </v>
    <v>       0.77777778       0.88888889       0.50011218 </v>
    <v>       0.88888889       0.77777778       0.75011218 </v>
    <v>       0.22222222       0.11111111       0.75011218 </v>
    <v>       0.11111111       0.22222222       0.50011218 </v>
    <v>       0.55555556       0.77777778       0.75011218 </v>
    <v>       0.11111111       0.88888889       0.00011218 </v>
    <v>       0.88888889       0.11111111       0.25011218 </v>
    <v>       0.11111111       0.55555556       0.00011218 </v>
    <v>       0.77777778       0.88888889       0.00011218 </v>
    <v>       0.88888889       0.77777778       0.25011218 </v>
    <v>       0.22222222       0.44444444       0.75011218 </v>
    <v>       0.11111111       0.55555556       0.50011218 </v>
    <v>       0.77777778       0.22222222       0.00011218 </v>
    <v>       0.44444444       0.88888889       0.00011218 </v>
    <v>       0.22222222       0.44444444       0.25011218 </v>
    <v>       0.44444444       0.55555556       0.50011218 </v>
    <v>       0.88888889       0.11111111       0.43838781 </v>
    <v>       0.77777778       0.22222222       0.18838781 </v>
    <v>       0.88888889       0.44444444       0.43838781 </v>
    <v>       0.77777778       0.22222222       0.68838781 </v>
    <v>       0.77777778       0.55555556       0.18838781 </v>
    <v>       0.88888889       0.44444444       0.93838781 </v>
    <v>       0.77777778       0.55555556       0.68838781 </v>
    <v>       0.88888889       0.77777778       0.43838781 </v>
    <v>       0.77777778       0.88888889       0.18838781 </v>
    <v>       0.88888889       0.11111111       0.93838781 </v>
    <v>       0.44444444       0.88888889       0.68838781 </v>
    <v>       0.44444444       0.55555556       0.18838781 </v>
    <v>       0.44444444       0.88888889       0.18838781 </v>
    <v>       0.22222222       0.11111111       0.43838781 </v>
    <v>       0.11111111       0.22222222       0.18838781 </v>
    <v>       0.22222222       0.11111111       0.93838781 </v>
    <v>       0.11111111       0.22222222       0.68838781 </v>
    <v>       0.22222222       0.44444444       0.43838781 </v>
    <v>       0.11111111       0.55555556       0.18838781 </v>
    <v>       0.22222222       0.44444444       0.93838781 </v>
    <v>       0.11111111       0.55555556       0.68838781 </v>
    <v>       0.22222222       0.77777778       0.43838781 </v>
    <v>       0.11111111       0.88888889       0.18838781 </v>
    <v>       0.22222222       0.77777778       0.93838781 </v>
    <v>       0.11111111       0.88888889       0.68838781 </v>
    <v>       0.55555556       0.11111111       0.43838781 </v>
    <v>       0.44444444       0.22222222       0.18838781 </v>
    <v>       0.55555556       0.11111111       0.93838781 </v>
    <v>       0.44444444       0.22222222       0.68838781 </v>
    <v>       0.55555556       0.44444444       0.43838781 </v>
    <v>       0.88888889       0.77777778       0.93838781 </v>
    <v>       0.55555556       0.44444444       0.93838781 </v>
    <v>       0.44444444       0.55555556       0.68838781 </v>
    <v>       0.55555556       0.77777778       0.43838781 </v>
    <v>       0.55555556       0.77777778       0.93838781 </v>
    <v>       0.77777778       0.88888889       0.68838781 </v>
   </varray>
  </structure>
  <varray name="forces" >
   <v>       0.00000000       0.00000000      -0.00362770 </v>
   <v>      -0.00000000       0.00000000      -0.00362770 </v>
   <v>      -0.00000000      -0.00000000      -0.00362770 </v>
   <v>       0.00000000       0.00000000      -0.00362770 </v>
   <v>      -0.00000000      -0.00000000      -0.00362770 </v>
   <v>       0.00000000       0.00000000      -0.00362770 </v>
   <v>      -0.00000000      -0.00000000      -0.00362770 </v>
   <v>       0.00000000       0.00000000      -0.00362770 </v>
   <v>      -0.00000000       0.00000000      -0.00362770 </v>
   <v>       0.00000000       0.00000000      -0.00362770 </v>
   <v>      -0.00000000       0.00000000      -0.00362770 </v>
   <v>       0.00000000       0.00000000      -0.00362770 </v>
   <v>      -0.00000000       0.00000000      -0.00362770 </v>
   <v>      -0.00000000      -0.00000000      -0.00362770 </v>
   <v>       0.00000000      -0.00000000      -0.00362770 </v>
   <v>       0.00000000       0.00000000      -0.00362770 </v>
   <v>       0.00000000       0.00000000      -0.00362770 </v>
   <v>       0.00000000      -0.00000000      -0.00362770 </v>
   <v>      -0.00000000       0.00000000      -0.00362770 </v>
   <v>      -0.00000000      -0.00000000      -0.00362770 </v>
   <v>      -0.00000000       0.00000000      -0.00362770 </v>
   <v>       0.00000000       0.00000000      -0.00362770 </v>
   <v>       0.00000000      -0.00000000      -0.00362770 </v>
   <v>      -0.00000000      -0.00000000      -0.00362770 </v>
   <v>       0.00000000       0.00000000      -0.00362770 </v>
   <v>      -0.00000000      -0.00000000      -0.00362770 </v>
   <v>       0.00000000       0.00000000      -0.00362770 </v>
   <v>      -0.00000000       0.00000000      -0.00362770 </v>
   <v>      -0.00000000      -0.00000000      -0.00362770 </v>
   <v>       0.00000000       0.00000000      -0.00362770 </v>
   <v>       0.00000000      -0.00000000      -0.00362770 </v>
   <v>      -0.00000000      -0.00000000      -0.00362770 </v>
   <v>      -0.00000000      -0.00000000      -0.00362770 </v>
   <v>      -0.00000000      -0.00000000      -0.00362770 </v>
   <v>       0.00000000       0.00000000      -0.00362770 </v>
   <v>      -0.00000000      -0.00000000      -0.00362770 </v>
   <v>       0.00000000      -0.00000000       0.00362770 </v>
   <v>       0.00000000       0.00000000       0.00362770 </v>
   <v>       0.00000000      -0.00000000       0.00362770 </v>
   <v>      -0.00000000      -0.00000000       0.00362770 </v>
   <v>      -0.00000000       0.00000000       0.00362770 </v>
   <v>      -0.00000000       0.00000000       0.00362770 </v>
   <v>      -0.00000000       0.00000000       0.00362770 </v>
   <v>      -0.00000000      -0.00000000       0.00362770 </v>
   <v>       0.00000000      -0.00000000       0.00362770 </v>
   <v>      -0.00000000      -0.00000000       0.00362770 </v>
   <v>       0.00000000       0.00000000       0.00362770 </v>
   <v>       0.00000000       0.00000000       0.00362770 </v>
   <v>       0.00000000       0.00000000       0.00362770 </v>
   <v>       0.00000000      -0.00000000       0.00362770 </v>
   <v>       0.00000000       0.00000000       0.00362770 </v>
   <v>      -0.00000000      -0.00000000       0.00362770 </v>
   <v>      -0.00000000      -0.00000000       0.00362770 </v>
   <v>       0.00000000      -0.00000000       0.00362770 </v>
   <v>       0.00000000       0.00000000       0.00362770 </v>
   <v>      -0.00000000       0.00000000       0.00362770 </v>
   <v>       0.00000000       0.00000000       0.00362770 </v>
   <v>      -0.00000000      -0.00000000       0.00362770 </v>
   <v>       0.00000000       0.00000000       0.00362770 </v>
   <v>      -0.00000000      -0.00000000       0.00362770 </v>
   <v>      -0.00000000       0.00000000       0.00362770 </v>
   <v>       0.00000000      -0.00000000       0.00362770 </v>
   <v>       0.00000000       0.00000000       0.00362770 </v>
   <v>      -0.00000000      -0.00000000       0.00362770 </v>
   <v>      -0.00000000      -0.00000000       0.00362770 </v>
   <v>       0.00000000      -0.00000000       0.00362770 </v>
   <v>      -0.00000000      -0.00000000       0.00362770 </v>
   <v>      -0.00000000       0.00000000       0.00362770 </v>
   <v>       0.00000000       0.00000000       0.00362770 </v>
   <v>      -0.00000000      -0.00000000       0.00362770 </v>
   <v>      -0.00000000      -0.00000000       0.00362770 </v>
   <v>      -0.00000000       0.00000000       0.00362770 </v>
  </varray>
  <varray name="stress" >
   <v>      10.34393083      -0.00000000       0.00000000 </v>
   <v>       0.00000000      10.34393083      -0.00000000 </v>
   <v>       0.00000000       0.00000000      11.05742268 </v>
  </varray>
  <energy>
   <i name="e_fr_energy">   -221.07781949 </i>
   <i name="e_wo_entrp">   -221.07781949 </i>
   <i name="e_0_energy">   -221.07781949 </i>
  </energy>
  <time name="totalsc"> 1986.04 2011.99</time>
  <eigenvalues>
   <array>
    <dimension dim="1">band</dimension>
    <dimension dim="2">kpoint</dimension>
    <dimension dim="3">spin</dimension>
    <field>eigene</field>
    <field>occ</field>
    <set>
     <set comment="spin 1">
      <set comment="kpoint 1">
       <r>  -11.1286    1.0000 </r>
       <r>  -10.9215    1.0000 </r>
       <r>  -10.9215    1.0000 </r>
       <r>  -10.8460    1.0000 </r>
       <r>  -10.8460    1.0000 </r>
       <r>  -10.8460    1.0000 </r>
       <r>  -10.8460    1.0000 </r>
       <r>  -10.8460    1.0000 </r>
       <r>  -10.8460    1.0000 </r>
       <r>  -10.7241    1.0000 </r>
       <r>  -10.7241    1.0000 </r>
       <r>  -10.7241    1.0000 </r>
       <r>  -10.7241    1.0000 </r>
       <r>  -10.7241    1.0000 </r>
       <r>  -10.7241    1.0000 </r>
       <r>  -10.7241    1.0000 </r>
       <r>  -10.7241    1.0000 </r>
       <r>  -10.7241    1.0000 </r>
       <r>  -10.7241    1.0000 </r>
       <r>  -10.7241    1.0000 </r>
       <r>  -10.7241    1.0000 </r>
       <r>  -10.7219    1.0000 </r>
       <r>  -10.6382    1.0000 </r>
       <r>  -10.6382    1.0000 </r>
       <r>  -10.6382    1.0000 </r>
       <r>  -10.6382    1.0000 </r>
       <r>  -10.6281    1.0000 </r>
       <r>  -10.6281    1.0000 </r>
       <r>  -10.6281    1.0000 </r>
       <r>  -10.6281    1.0000 </r>
       <r>  -10.6194    1.0000 </r>
       <r>  -10.6194    1.0000 </r>
       <r>  -10.6194    1.0000 </r>
       <r>  -10.6194    1.0000 </r>
       <r>  -10.6194    1.0000 </r>
       <r>  -10.6194    1.0000 </r>
       <r>   -6.5316    1.0000 </r>
       <r>   -6.5250    1.0000 </r>
       <r>   -6.5250    1.0000 </r>
       <r>   -6.4920    1.0000 </r>
       <r>   -6.4920    1.0000 </r>
       <r>   -6.4920    1.0000 </r>
       <r>   -6.4920    1.0000 </r>
       <r>   -6.4639    1.0000 </r>
       <r>   -6.4639    1.0000 </r>
       <r>   -6.4516    1.0000 </r>
       <r>   -6.4516    1.0000 </r>
       <r>   -6.4516    1.0000 </r>
       <r>   -6.4516    1.0000 </r>
       <r>   -6.4516    1.0000 </r>
       <r>   -6.4516    1.0000 </r>
       <r>   -6.4462    1.0000 </r>
       <r>   -6.4462    1.0000 </r>
       <r>   -6.4362    1.0000 </r>
       <r>   -6.4362    1.0000 </r>
       <r>   -6.4362    1.0000 </r>
       <r>   -6.4362    1.0000 </r>
       <r>   -6.4362    1.0000 </r>
       <r>   -6.4362    1.0000 </r>
       <r>   -6.4089    1.0000 </r>
       <r>   -6.4089    1.0000 </r>
       <r>   -6.4089    1.0000 </r>
       <r>   -6.4089    1.0000 </r>
       <r>   -6.4089    1.0000 </r>
       <r>   -6.4089    1.0000 </r>
       <r>   -6.4089    1.0000 </r>
       <r>   -6.4089    1.0000 </r>
       <r>   -6.4089    1.0000 </r>
       <r>   -6.4089    1.0000 </r>
       <r>   -6.4089    1.0000 </r>
       <r>   -6.4089    1.0000 </r>
       <r>   -6.3641    1.0000 </r>
       <r>   -6.3641    1.0000 </r>
       <r>   -6.3641    1.0000 </r>
       <r>   -6.3641    1.0000 </r>
       <r>   -6.3641    1.0000 </r>
       <r>   -6.3641    1.0000 </r>
       <r>   -6.3641    1.0000 </r>
       <r>   -6.3641    1.0000 </r>
       <r>   -6.3641    1.0000 </r>
       <r>   -6.3641    1.0000 </r>
       <r>   -6.3641    1.0000 </r>
       <r>   -6.3641    1.0000 </r>
       <r>   -6.3530    1.0000 </r>
       <r>   -6.3530    1.0000 </r>
       <r>   -6.3530    1.0000 </r>
       <r>   -6.3530    1.0000 </r>
       <r>   -6.3375    1.0000 </r>
       <r>   -6.3375    1.0000 </r>
       <r>   -6.3375    1.0000 </r>
       <r>   -6.3375    1.0000 </r>
       <r>   -6.3180    1.0000 </r>
       <r>   -6.3180    1.0000 </r>
       <r>   -6.3180    1.0000 </r>
       <r>   -6.3180    1.0000 </r>
       <r>   -6.3180    1.0000 </r>
       <r>   -6.3180    1.0000 </r>
       <r>   -6.3116    1.0000 </r>
       <r>   -6.3116    1.0000 </r>
       <r>   -6.3008    1.0000 </r>
       <r>   -6.3008    1.0000 </r>
       <r>   -6.3008    1.0000 </r>
       <r>   -6.3008    1.0000 </r>
       <r>   -6.2947    1.0000 </r>
       <r>   -6.2947    1.0000 </r>
       <r>   -6.2947    1.0000 </r>
       <r>   -6.2947    1.0000 </r>
       <r>   -6.2947    1.0000 </r>
       <r>   -6.2947    1.0000 </r>
       <r>   -6.2408    1.0000 </r>
       <r>   -6.2408    1.0000 </r>
       <r>   -6.2272    1.0000 </r>
       <r>   -6.2272    1.0000 </r>
       <r>   -6.2272    1.0000 </r>
       <r>   -6.2272    1.0000 </r>
       <r>   -6.2272    1.0000 </r>
       <r>   -6.2272    1.0000 </r>
       <r>   -6.2019    1.0000 </r>
       <r>   -6.2019    1.0000 </r>
       <r>   -6.2019    1.0000 </r>
       <r>   -6.2019    1.0000 </r>
       <r>   -6.2019    1.0000 </r>
       <r>   -6.2019    1.0000 </r>
       <r>   -6.2019    1.0000 </r>
       <r>   -6.2019    1.0000 </r>
       <r>   -6.2019    1.0000 </r>
       <r>   -6.2019    1.0000 </r>
       <r>   -6.2019    1.0000 </r>
       <r>   -6.2019    1.0000 </r>
       <r>   -6.1825    1.0000 </r>
       <r>   -6.1825    1.0000 </r>
       <r>   -6.1825    1.0000 </r>
       <r>   -6.1825    1.0000 </r>
       <r>   -6.1825    1.0000 </r>
       <r>   -6.1825    1.0000 </r>
       <r>   -6.1484    1.0000 </r>
       <r>   -6.1484    1.0000 </r>
       <r>   -6.1484    1.0000 </r>
       <r>   -6.1484    1.0000 </r>
       <r>   -6.1385    1.0000 </r>
       <r>   -6.1385    1.0000 </r>
       <r>   -6.1308    1.0000 </r>
       <r>   -6.1308    1.0000 </r>
       <r>   -6.1308    1.0000 </r>
       <r>   -6.1308    1.0000 </r>
       <r>   -6.1240    1.0000 </r>
       <r>   -6.1240    1.0000 </r>
       <r>   -6.1227    1.0000 </r>
       <r>   -6.1227    1.0000 </r>
       <r>   -6.1227    1.0000 </r>
       <r>   -6.1227    1.0000 </r>
       <r>   -6.1051    1.0000 </r>
       <r>   -6.1051    1.0000 </r>
       <r>   -6.1051    1.0000 </r>
       <r>   -6.1051    1.0000 </r>
       <r>   -6.1051    1.0000 </r>
       <r>   -6.1051    1.0000 </r>
       <r>   -6.0909    1.0000 </r>
       <r>   -6.0909    1.0000 </r>
       <r>   -6.0909    1.0000 </r>
       <r>   -6.0909    1.0000 </r>
       <r>   -6.0767    1.0000 </r>
       <r>   -6.0767    1.0000 </r>
       <r>   -6.0767    1.0000 </r>
       <r>   -6.0767    1.0000 </r>
       <r>   -6.0767    1.0000 </r>
       <r>   -6.0767    1.0000 </r>
       <r>   -6.0728    1.0000 </r>
       <r>   -6.0728    1.0000 </r>
       <r>   -6.0728    1.0000 </r>
       <r>   -6.0728    1.0000 </r>
       <r>   -6.0728    1.0000 </r>
       <r>   -6.0728    1.0000 </r>
       <r>   -6.0728    1.0000 </r>
       <r>   -6.0728    1.0000 </r>
       <r>   -6.0728    1.0000 </r>
       <r>   -6.0728    1.0000 </r>
       <r>   -6.0728    1.0000 </r>
       <r>   -6.0728    1.0000 </r>
       <r>   -6.0680    1.0000 </r>
       <r>   -6.0680    1.0000 </r>
       <r>   -6.0528    1.0000 </r>
       <r>   -6.0528    1.0000 </r>
       <r>   -6.0297    1.0000 </r>
       <r>   -6.0297    1.0000 </r>
       <r>   -6.0297    1.0000 </r>
       <r>   -6.0297    1.0000 </r>
       <r>   -6.0297    1.0000 </r>
       <r>   -6.0297    1.0000 </r>
       <r>   -5.9050    1.0000 </r>
       <r>   -5.9050    1.0000 </r>
       <r>   -5.9050    1.0000 </r>
       <r>   -5.9050    1.0000 </r>
       <r>   -5.9050    1.0000 </r>
       <r>   -5.9050    1.0000 </r>
       <r>   -5.9050    1.0000 </r>
       <r>   -5.9050    1.0000 </r>
       <r>   -5.9050    1.0000 </r>
       <r>   -5.9050    1.0000 </r>
       <r>   -5.9050    1.0000 </r>
       <r>   -5.9050    1.0000 </r>
       <r>   -5.7288    1.0000 </r>
       <r>   -5.5999    1.0000 </r>
       <r>   -5.5999    1.0000 </r>
       <r>   -5.5999    1.0000 </r>
       <r>   -5.5999    1.0000 </r>
       <r>   -5.5847    1.0000 </r>
       <r>   -5.5847    1.0000 </r>
       <r>   -5.5847    1.0000 </r>
       <r>   -5.5847    1.0000 </r>
       <r>   -5.5661    1.0000 </r>
       <r>   -5.5661    1.0000 </r>
       <r>   -5.5661    1.0000 </r>
       <r>   -5.5661    1.0000 </r>
       <r>   -5.5661    1.0000 </r>
       <r>   -5.5661    1.0000 </r>
       <r>   -3.1428    1.0000 </r>
       <r>   -2.8198    1.0000 </r>
       <r>   -2.8198    1.0000 </r>
       <r>   -2.8198    1.0000 </r>
       <r>   -2.8198    1.0000 </r>
       <r>   -2.7414    1.0000 </r>
       <r>   -2.7414    1.0000 </r>
       <r>   -2.7414    1.0000 </r>
       <r>   -2.7414    1.0000 </r>
       <r>   -2.7414    1.0000 </r>
       <r>   -2.7414    1.0000 </r>
       <r>   -2.5035    1.0000 </r>
       <r>   -2.5035    1.0000 </r>
       <r>   -2.5035    1.0000 </r>
       <r>   -2.5035    1.0000 </r>
       <r>   -2.3371    1.0000 </r>
       <r>   -2.3371    1.0000 </r>
       <r>   -2.3371    1.0000 </r>
       <r>   -2.3371    1.0000 </r>
       <r>   -2.3371    1.0000 </r>
       <r>   -2.3371    1.0000 </r>
       <r>   -2.3371    1.0000 </r>
       <r>   -2.3371    1.0000 </r>
       <r>   -2.3371    1.0000 </r>
       <r>   -2.3371    1.0000 </r>
       <r>   -2.3371    1.0000 </r>
       <r>   -2.3371    1.0000 </r>
       <r>   -1.8868    1.0000 </r>
       <r>   -1.8868    1.0000 </r>
       <r>   -1.7889    1.0000 </r>
       <r>   -1.7889    1.0000 </r>
       <r>   -1.7889    1.0000 </r>
       <r>   -1.7889    1.0000 </r>
       <r>   -1.7889    1.0000 </r>
       <r>   -1.7889    1.0000 </r>
       <r>   -1.3811    1.0000 </r>
       <r>   -1.3811    1.0000 </r>
       <r>   -1.3811    1.0000 </r>
       <r>   -1.3811    1.0000 </r>
       <r>   -1.3811    1.0000 </r>
       <r>   -1.3811    1.0000 </r>
       <r>   -1.3313    1.0000 </r>
       <r>   -1.3313    1.0000 </r>
       <r>   -1.2499    1.0000 </r>
       <r>   -1.2499    1.0000 </r>
       <r>   -1.2499    1.0000 </r>
       <r>   -1.2499    1.0000 </r>
       <r>   -0.6906    1.0000 </r>
       <r>   -0.6906    1.0000 </r>
       <r>   -0.6906    1.0000 </r>
       <r>   -0.6906    1.0000 </r>
       <r>   -0.4966    1.0000 </r>
       <r>   -0.4966    1.0000 </r>
       <r>   -0.4754    1.0000 </r>
       <r>   -0.4754    1.0000 </r>
       <r>   -0.4754    1.0000 </r>
       <r>   -0.4754    1.0000 </r>
       <r>   -0.4754    1.0000 </r>
       <r>   -0.4754    1.0000 </r>
       <r>   -0.2430    1.0000 </r>
       <r>   -0.2430    1.0000 </r>
       <r>   -0.2430    1.0000 </r>
       <r>   -0.2430    1.0000 </r>
       <r>   -0.2430    1.0000 </r>
       <r>   -0.2430    1.0000 </r>
       <r>   -0.2430    1.0000 </r>
       <r>   -0.2430    1.0000 </r>
       <r>   -0.2430    1.0000 </r>
       <r>   -0.2430    1.0000 </r>
       <r>   -0.2430    1.0000 </r>
       <r>   -0.2430    1.0000 </r>
       <r>    0.0020    1.0000 </r>
       <r>    0.0020    1.0000 </r>
       <r>    0.0020    1.0000 </r>
       <r>    0.0020    1.0000 </r>
       <r>    0.0020    1.0000 </r>
       <r>    0.0020    1.0000 </r>
       <r>    0.0020    1.0000 </r>
       <r>    0.0020    1.0000 </r>
       <r>    0.0020    1.0000 </r>
       <r>    0.0020    1.0000 </r>
       <r>    0.0020    1.0000 </r>
       <r>    0.0020    1.0000 </r>
       <r>    0.0109    1.0000 </r>
       <r>    0.0109    1.0000 </r>
       <r>    0.0109    1.0000 </r>
       <r>    0.0109    1.0000 </r>
       <r>    0.2972    1.0000 </r>
       <r>    0.2972    1.0000 </r>
       <r>    0.2972    1.0000 </r>
       <r>    0.2972    1.0000 </r>
       <r>    0.2972    1.0000 </r>
       <r>    0.2972    1.0000 </r>
       <r>    0.3551    1.0000 </r>
       <r>    0.3551    1.0000 </r>
       <r>    0.5349    1.0000 </r>
       <r>    0.5349    1.0000 </r>
       <r>    0.5349    1.0000 </r>
       <r>    0.5349    1.0000 </r>
       <r>    0.5349    1.0000 </r>
       <r>    0.5349    1.0000 </r>
       <r>    0.7043    1.0000 </r>
       <r>    0.7043    1.0000 </r>
       <r>    0.7043    1.0000 </r>
       <r>    0.7043    1.0000 </r>
       <r>    1.0386    1.0000 </r>
       <r>    1.0783    1.0000 </r>
       <r>    1.0783    1.0000 </r>
       <r>    2.2390    0.0000 </r>
       <r>    3.8395    0.0000 </r>
       <r>    3.8817    0.0000 </r>
       <r>    3.8817    0.0000 </r>
       <r>    4.4572    0.0000 </r>
       <r>    4.4572    0.0000 </r>
       <r>    4.4572    0.0000 </r>
       <r>    4.4572    0.0000 </r>
       <r>    4.4572    0.0000 </r>
       <r>    4.4572    0.0000 </r>
       <r>    4.7645    0.0000 </r>
       <r>    4.7645    0.0000 </r>
       <r>    4.7645    0.0000 </r>
       <r>    4.7645    0.0000 </r>
       <r>    4.7645    0.0000 </r>
       <r>    4.7645    0.0000 </r>
       <r>    4.7645    0.0000 </r>
       <r>    4.7645    0.0000 </r>
       <r>    4.7645    0.0000 </r>
       <r>    4.7645    0.0000 </r>
       <r>    4.7645    0.0000 </r>
       <r>    4.7645    0.0000 </r>
       <r>    5.0666    0.0000 </r>
       <r>    5.0666    0.0000 </r>
       <r>    5.0666    0.0000 </r>
       <r>    5.0666    0.0000 </r>
       <r>    5.0666    0.0000 </r>
       <r>    5.0666    0.0000 </r>
       <r>    5.4271    0.0000 </r>
       <r>    5.4271    0.0000 </r>
       <r>    5.4271    0.0000 </r>
       <r>    5.4271    0.0000 </r>
       <r>    5.7879    0.0000 </r>
       <r>    5.7879    0.0000 </r>
       <r>    6.0964    0.0000 </r>
       <r>    6.0964    0.0000 </r>
       <r>    6.0964    0.0000 </r>
       <r>    6.0964    0.0000 </r>
       <r>    6.4495    0.0000 </r>
       <r>    6.4495    0.0000 </r>
       <r>    6.4495    0.0000 </r>
       <r>    6.4495    0.0000 </r>
       <r>    6.4495    0.0000 </r>
       <r>    6.4495    0.0000 </r>
       <r>    6.4985    0.0000 </r>
       <r>    6.4985    0.0000 </r>
       <r>    6.4985    0.0000 </r>
       <r>    6.4985    0.0000 </r>
       <r>    6.4985    0.0000 </r>
       <r>    6.4985    0.0000 </r>
       <r>    6.4985    0.0000 </r>
       <r>    6.4985    0.0000 </r>
       <r>    6.4985    0.0000 </r>
       <r>    6.4985    0.0000 </r>
       <r>    6.4985    0.0000 </r>
       <r>    6.4985    0.0000 </r>
       <r>    7.1952    0.0000 </r>
       <r>    7.1952    0.0000 </r>
       <r>    7.1952    0.0000 </r>
       <r>    7.1952    0.0000 </r>
       <r>    7.2413    0.0000 </r>
       <r>    7.2413    0.0000 </r>
       <r>    7.2630    0.0000 </r>
       <r>    7.2630    0.0000 </r>
       <r>    7.2630    0.0000 </r>
       <r>    7.2630    0.0000 </r>
       <r>    7.2630    0.0000 </r>
       <r>    7.2630    0.0000 </r>
       <r>    7.5237    0.0000 </r>
       <r>    7.5237    0.0000 </r>
       <r>    7.5237    0.0000 </r>
       <r>    7.5237    0.0000 </r>
       <r>    7.5576    0.0000 </r>
       <r>    7.5576    0.0000 </r>
       <r>    7.8669    0.0000 </r>
       <r>    7.9055    0.0000 </r>
       <r>    7.9055    0.0000 </r>
       <r>    7.9055    0.0000 </r>
       <r>    7.9055    0.0000 </r>
       <r>    8.1675    0.0000 </r>
       <r>    8.1675    0.0000 </r>
       <r>    8.1675    0.0000 </r>
       <r>    8.1675    0.0000 </r>
       <r>    8.1675    0.0000 </r>
       <r>    8.1676    0.0000 </r>
       <r>    8.2119    0.0000 </r>
       <r>    8.2119    0.0000 </r>
       <r>    8.4742    0.0000 </r>
       <r>    8.4817    0.0000 </r>
       <r>    8.4872    0.0000 </r>
       <r>    8.4979    0.0000 </r>
       <r>    8.5215    0.0000 </r>
      </set>
      <set comment="kpoint 2">
       <r>  -11.1134    1.0000 </r>
       <r>  -10.9254    1.0000 </r>
       <r>  -10.9102    1.0000 </r>
       <r>  -10.9102    1.0000 </r>
       <r>  -10.8778    1.0000 </r>
       <r>  -10.8778    1.0000 </r>
       <r>  -10.8038    1.0000 </r>
       <r>  -10.8038    1.0000 </r>
       <r>  -10.7786    1.0000 </r>
       <r>  -10.7761    1.0000 </r>
       <r>  -10.7761    1.0000 </r>
       <r>  -10.7445    1.0000 </r>
       <r>  -10.7445    1.0000 </r>
       <r>  -10.7445    1.0000 </r>
       <r>  -10.7445    1.0000 </r>
       <r>  -10.7151    1.0000 </r>
       <r>  -10.6983    1.0000 </r>
       <r>  -10.6983    1.0000 </r>
       <r>  -10.6983    1.0000 </r>
       <r>  -10.6983    1.0000 </r>
       <r>  -10.6836    1.0000 </r>
       <r>  -10.6836    1.0000 </r>
       <r>  -10.6700    1.0000 </r>
       <r>  -10.6700    1.0000 </r>
       <r>  -10.6418    1.0000 </r>
       <r>  -10.6335    1.0000 </r>
       <r>  -10.6335    1.0000 </r>
       <r>  -10.6335    1.0000 </r>
       <r>  -10.6335    1.0000 </r>
       <r>  -10.6275    1.0000 </r>
       <r>  -10.6275    1.0000 </r>
       <r>  -10.6171    1.0000 </r>
       <r>  -10.6171    1.0000 </r>
       <r>  -10.6108    1.0000 </r>
       <r>  -10.6108    1.0000 </r>
       <r>  -10.6071    1.0000 </r>
       <r>   -6.5282    1.0000 </r>
       <r>   -6.5186    1.0000 </r>
       <r>   -6.5121    1.0000 </r>
       <r>   -6.4850    1.0000 </r>
       <r>   -6.4850    1.0000 </r>
       <r>   -6.4841    1.0000 </r>
       <r>   -6.4841    1.0000 </r>
       <r>   -6.4686    1.0000 </r>
       <r>   -6.4610    1.0000 </r>
       <r>   -6.4610    1.0000 </r>
       <r>   -6.4542    1.0000 </r>
       <r>   -6.4538    1.0000 </r>
       <r>   -6.4538    1.0000 </r>
       <r>   -6.4460    1.0000 </r>
       <r>   -6.4460    1.0000 </r>
       <r>   -6.4415    1.0000 </r>
       <r>   -6.4415    1.0000 </r>
       <r>   -6.4413    1.0000 </r>
       <r>   -6.4394    1.0000 </r>
       <r>   -6.4376    1.0000 </r>
       <r>   -6.4310    1.0000 </r>
       <r>   -6.4310    1.0000 </r>
       <r>   -6.4252    1.0000 </r>
       <r>   -6.4193    1.0000 </r>
       <r>   -6.4193    1.0000 </r>
       <r>   -6.4094    1.0000 </r>
       <r>   -6.4094    1.0000 </r>
       <r>   -6.4094    1.0000 </r>
       <r>   -6.4094    1.0000 </r>
       <r>   -6.4059    1.0000 </r>
       <r>   -6.4059    1.0000 </r>
       <r>   -6.4025    1.0000 </r>
       <r>   -6.4025    1.0000 </r>
       <r>   -6.4025    1.0000 </r>
       <r>   -6.4025    1.0000 </r>
       <r>   -6.3953    1.0000 </r>
       <r>   -6.3953    1.0000 </r>
       <r>   -6.3764    1.0000 </r>
       <r>   -6.3764    1.0000 </r>
       <r>   -6.3764    1.0000 </r>
       <r>   -6.3764    1.0000 </r>
       <r>   -6.3654    1.0000 </r>
       <r>   -6.3598    1.0000 </r>
       <r>   -6.3598    1.0000 </r>
       <r>   -6.3598    1.0000 </r>
       <r>   -6.3598    1.0000 </r>
       <r>   -6.3507    1.0000 </r>
       <r>   -6.3507    1.0000 </r>
       <r>   -6.3507    1.0000 </r>
       <r>   -6.3507    1.0000 </r>
       <r>   -6.3417    1.0000 </r>
       <r>   -6.3417    1.0000 </r>
       <r>   -6.3359    1.0000 </r>
       <r>   -6.3359    1.0000 </r>
       <r>   -6.3358    1.0000 </r>
       <r>   -6.3358    1.0000 </r>
       <r>   -6.3358    1.0000 </r>
       <r>   -6.3358    1.0000 </r>
       <r>   -6.3349    1.0000 </r>
       <r>   -6.3349    1.0000 </r>
       <r>   -6.3340    1.0000 </r>
       <r>   -6.3156    1.0000 </r>
       <r>   -6.3156    1.0000 </r>
       <r>   -6.3079    1.0000 </r>
       <r>   -6.3074    1.0000 </r>
       <r>   -6.3074    1.0000 </r>
       <r>   -6.2935    1.0000 </r>
       <r>   -6.2935    1.0000 </r>
       <r>   -6.2800    1.0000 </r>
       <r>   -6.2792    1.0000 </r>
       <r>   -6.2792    1.0000 </r>
       <r>   -6.2767    1.0000 </r>
       <r>   -6.2767    1.0000 </r>
       <r>   -6.2647    1.0000 </r>
       <r>   -6.2493    1.0000 </r>
       <r>   -6.2493    1.0000 </r>
       <r>   -6.2427    1.0000 </r>
       <r>   -6.2427    1.0000 </r>
       <r>   -6.2374    1.0000 </r>
       <r>   -6.2374    1.0000 </r>
       <r>   -6.2191    1.0000 </r>
       <r>   -6.2191    1.0000 </r>
       <r>   -6.2191    1.0000 </r>
       <r>   -6.2191    1.0000 </r>
       <r>   -6.2139    1.0000 </r>
       <r>   -6.2088    1.0000 </r>
       <r>   -6.2088    1.0000 </r>
       <r>   -6.1885    1.0000 </r>
       <r>   -6.1885    1.0000 </r>
       <r>   -6.1885    1.0000 </r>
       <r>   -6.1885    1.0000 </r>
       <r>   -6.1787    1.0000 </r>
       <r>   -6.1787    1.0000 </r>
       <r>   -6.1769    1.0000 </r>
       <r>   -6.1763    1.0000 </r>
       <r>   -6.1763    1.0000 </r>
       <r>   -6.1762    1.0000 </r>
       <r>   -6.1733    1.0000 </r>
       <r>   -6.1733    1.0000 </r>
       <r>   -6.1643    1.0000 </r>
       <r>   -6.1643    1.0000 </r>
       <r>   -6.1495    1.0000 </r>
       <r>   -6.1495    1.0000 </r>
       <r>   -6.1495    1.0000 </r>
       <r>   -6.1495    1.0000 </r>
       <r>   -6.1453    1.0000 </r>
       <r>   -6.1453    1.0000 </r>
       <r>   -6.1419    1.0000 </r>
       <r>   -6.1388    1.0000 </r>
       <r>   -6.1225    1.0000 </r>
       <r>   -6.1186    1.0000 </r>
       <r>   -6.1186    1.0000 </r>
       <r>   -6.1155    1.0000 </r>
       <r>   -6.1155    1.0000 </r>
       <r>   -6.1054    1.0000 </r>
       <r>   -6.1035    1.0000 </r>
       <r>   -6.1035    1.0000 </r>
       <r>   -6.1035    1.0000 </r>
       <r>   -6.1035    1.0000 </r>
       <r>   -6.1019    1.0000 </r>
       <r>   -6.1019    1.0000 </r>
       <r>   -6.0982    1.0000 </r>
       <r>   -6.0982    1.0000 </r>
       <r>   -6.0906    1.0000 </r>
       <r>   -6.0906    1.0000 </r>
       <r>   -6.0871    1.0000 </r>
       <r>   -6.0871    1.0000 </r>
       <r>   -6.0863    1.0000 </r>
       <r>   -6.0817    1.0000 </r>
       <r>   -6.0817    1.0000 </r>
       <r>   -6.0787    1.0000 </r>
       <r>   -6.0787    1.0000 </r>
       <r>   -6.0787    1.0000 </r>
       <r>   -6.0787    1.0000 </r>
       <r>   -6.0702    1.0000 </r>
       <r>   -6.0702    1.0000 </r>
       <r>   -6.0702    1.0000 </r>
       <r>   -6.0702    1.0000 </r>
       <r>   -6.0653    1.0000 </r>
       <r>   -6.0653    1.0000 </r>
       <r>   -6.0628    1.0000 </r>
       <r>   -6.0628    1.0000 </r>
       <r>   -6.0600    1.0000 </r>
       <r>   -6.0516    1.0000 </r>
       <r>   -6.0488    1.0000 </r>
       <r>   -6.0488    1.0000 </r>
       <r>   -6.0366    1.0000 </r>
       <r>   -6.0296    1.0000 </r>
       <r>   -6.0296    1.0000 </r>
       <r>   -6.0231    1.0000 </r>
       <r>   -5.9986    1.0000 </r>
       <r>   -5.9986    1.0000 </r>
       <r>   -5.9914    1.0000 </r>
       <r>   -5.9914    1.0000 </r>
       <r>   -5.9541    1.0000 </r>
       <r>   -5.9414    1.0000 </r>
       <r>   -5.9414    1.0000 </r>
       <r>   -5.9414    1.0000 </r>
       <r>   -5.9414    1.0000 </r>
       <r>   -5.8414    1.0000 </r>
       <r>   -5.8414    1.0000 </r>
       <r>   -5.8414    1.0000 </r>
       <r>   -5.8414    1.0000 </r>
       <r>   -5.8025    1.0000 </r>
       <r>   -5.8025    1.0000 </r>
       <r>   -5.7182    1.0000 </r>
       <r>   -5.6798    1.0000 </r>
       <r>   -5.6798    1.0000 </r>
       <r>   -5.6086    1.0000 </r>
       <r>   -5.6086    1.0000 </r>
       <r>   -5.6086    1.0000 </r>
       <r>   -5.6086    1.0000 </r>
       <r>   -5.6033    1.0000 </r>
       <r>   -5.5768    1.0000 </r>
       <r>   -5.5768    1.0000 </r>
       <r>   -5.5630    1.0000 </r>
       <r>   -5.5548    1.0000 </r>
       <r>   -5.5548    1.0000 </r>
       <r>   -5.5525    1.0000 </r>
       <r>   -5.5525    1.0000 </r>
       <r>   -3.1127    1.0000 </r>
       <r>   -2.8308    1.0000 </r>
       <r>   -2.8131    1.0000 </r>
       <r>   -2.8131    1.0000 </r>
       <r>   -2.8131    1.0000 </r>
       <r>   -2.8131    1.0000 </r>
       <r>   -2.7779    1.0000 </r>
       <r>   -2.7665    1.0000 </r>
       <r>   -2.7665    1.0000 </r>
       <r>   -2.7336    1.0000 </r>
       <r>   -2.7336    1.0000 </r>
       <r>   -2.6933    1.0000 </r>
       <r>   -2.6933    1.0000 </r>
       <r>   -2.6374    1.0000 </r>
       <r>   -2.6374    1.0000 </r>
       <r>   -2.5287    1.0000 </r>
       <r>   -2.5287    1.0000 </r>
       <r>   -2.5287    1.0000 </r>
       <r>   -2.5287    1.0000 </r>
       <r>   -2.3850    1.0000 </r>
       <r>   -2.3850    1.0000 </r>
       <r>   -2.1486    1.0000 </r>
       <r>   -2.1486    1.0000 </r>
       <r>   -2.1486    1.0000 </r>
       <r>   -2.1486    1.0000 </r>
       <r>   -2.0987    1.0000 </r>
       <r>   -1.9456    1.0000 </r>
       <r>   -1.9456    1.0000 </r>
       <r>   -1.9340    1.0000 </r>
       <r>   -1.9340    1.0000 </r>
       <r>   -1.7626    1.0000 </r>
       <r>   -1.7626    1.0000 </r>
       <r>   -1.5976    1.0000 </r>
       <r>   -1.5976    1.0000 </r>
       <r>   -1.5172    1.0000 </r>
       <r>   -1.4782    1.0000 </r>
       <r>   -1.4782    1.0000 </r>
       <r>   -1.3962    1.0000 </r>
       <r>   -1.3466    1.0000 </r>
       <r>   -1.3466    1.0000 </r>
       <r>   -1.2282    1.0000 </r>
       <r>   -1.2282    1.0000 </r>
       <r>   -1.1493    1.0000 </r>
       <r>   -1.1493    1.0000 </r>
       <r>   -1.1493    1.0000 </r>
       <r>   -1.1493    1.0000 </r>
       <r>   -0.9559    1.0000 </r>
       <r>   -0.9320    1.0000 </r>
       <r>   -0.9320    1.0000 </r>
       <r>   -0.6578    1.0000 </r>
       <r>   -0.6578    1.0000 </r>
       <r>   -0.6246    1.0000 </r>
       <r>   -0.4667    1.0000 </r>
       <r>   -0.4667    1.0000 </r>
       <r>   -0.4572    1.0000 </r>
       <r>   -0.4572    1.0000 </r>
       <r>   -0.3971    1.0000 </r>
       <r>   -0.3971    1.0000 </r>
       <r>   -0.2911    1.0000 </r>
       <r>   -0.2911    1.0000 </r>
       <r>   -0.2911    1.0000 </r>
       <r>   -0.2911    1.0000 </r>
       <r>   -0.2764    1.0000 </r>
       <r>   -0.2451    1.0000 </r>
       <r>   -0.2451    1.0000 </r>
       <r>   -0.2451    1.0000 </r>
       <r>   -0.2451    1.0000 </r>
       <r>   -0.2196    1.0000 </r>
       <r>   -0.2196    1.0000 </r>
       <r>   -0.2175    1.0000 </r>
       <r>   -0.2175    1.0000 </r>
       <r>   -0.1290    1.0000 </r>
       <r>   -0.1290    1.0000 </r>
       <r>   -0.0934    1.0000 </r>
       <r>   -0.0934    1.0000 </r>
       <r>   -0.0934    1.0000 </r>
       <r>   -0.0934    1.0000 </r>
       <r>   -0.0026    1.0000 </r>
       <r>   -0.0026    1.0000 </r>
       <r>   -0.0026    1.0000 </r>
       <r>   -0.0026    1.0000 </r>
       <r>    0.0175    1.0000 </r>
       <r>    0.0175    1.0000 </r>
       <r>    0.0175    1.0000 </r>
       <r>    0.0175    1.0000 </r>
       <r>    0.0451    1.0000 </r>
       <r>    0.1568    1.0000 </r>
       <r>    0.1568    1.0000 </r>
       <r>    0.1635    1.0000 </r>
       <r>    0.1753    1.0000 </r>
       <r>    0.1753    1.0000 </r>
       <r>    0.2997    1.0000 </r>
       <r>    0.3888    1.0000 </r>
       <r>    0.3888    1.0000 </r>
       <r>    0.4151    1.0000 </r>
       <r>    0.4151    1.0000 </r>
       <r>    0.4250    1.0000 </r>
       <r>    0.5260    1.0000 </r>
       <r>    0.5260    1.0000 </r>
       <r>    0.5496    1.0000 </r>
       <r>    0.5562    1.0000 </r>
       <r>    0.5562    1.0000 </r>
       <r>    0.6598    1.0000 </r>
       <r>    0.6598    1.0000 </r>
       <r>    0.6773    1.0000 </r>
       <r>    0.7614    1.0000 </r>
       <r>    1.0090    1.0000 </r>
       <r>    1.0475    1.0000 </r>
       <r>    2.5478    0.0000 </r>
       <r>    4.0278    0.0000 </r>
       <r>    4.0484    0.0000 </r>
       <r>    4.0484    0.0000 </r>
       <r>    4.1132    0.0000 </r>
       <r>    4.3975    0.0000 </r>
       <r>    4.3975    0.0000 </r>
       <r>    4.6371    0.0000 </r>
       <r>    4.6371    0.0000 </r>
       <r>    4.6569    0.0000 </r>
       <r>    4.6816    0.0000 </r>
       <r>    4.6816    0.0000 </r>
       <r>    4.8020    0.0000 </r>
       <r>    4.8020    0.0000 </r>
       <r>    4.8020    0.0000 </r>
       <r>    4.8020    0.0000 </r>
       <r>    4.8586    0.0000 </r>
       <r>    4.8586    0.0000 </r>
       <r>    4.9214    0.0000 </r>
       <r>    4.9214    0.0000 </r>
       <r>    4.9214    0.0000 </r>
       <r>    4.9214    0.0000 </r>
       <r>    5.0031    0.0000 </r>
       <r>    5.0777    0.0000 </r>
       <r>    5.1843    0.0000 </r>
       <r>    5.1843    0.0000 </r>
       <r>    5.2270    0.0000 </r>
       <r>    5.2270    0.0000 </r>
       <r>    5.3689    0.0000 </r>
       <r>    5.3689    0.0000 </r>
       <r>    5.3689    0.0000 </r>
       <r>    5.3689    0.0000 </r>
       <r>    5.7873    0.0000 </r>
       <r>    5.7873    0.0000 </r>
       <r>    5.9053    0.0000 </r>
       <r>    5.9053    0.0000 </r>
       <r>    6.1753    0.0000 </r>
       <r>    6.1753    0.0000 </r>
       <r>    6.3075    0.0000 </r>
       <r>    6.3657    0.0000 </r>
       <r>    6.3657    0.0000 </r>
       <r>    6.4773    0.0000 </r>
       <r>    6.4773    0.0000 </r>
       <r>    6.4812    0.0000 </r>
       <r>    6.4812    0.0000 </r>
       <r>    6.5052    0.0000 </r>
       <r>    6.5052    0.0000 </r>
       <r>    6.5052    0.0000 </r>
       <r>    6.5052    0.0000 </r>
       <r>    6.5100    0.0000 </r>
       <r>    6.5100    0.0000 </r>
       <r>    6.5280    0.0000 </r>
       <r>    6.5280    0.0000 </r>
       <r>    6.5280    0.0000 </r>
       <r>    6.5280    0.0000 </r>
       <r>    6.5590    0.0000 </r>
       <r>    7.0720    0.0000 </r>
       <r>    7.0720    0.0000 </r>
       <r>    7.1079    0.0000 </r>
       <r>    7.1079    0.0000 </r>
       <r>    7.1079    0.0000 </r>
       <r>    7.1079    0.0000 </r>
       <r>    7.2647    0.0000 </r>
       <r>    7.2647    0.0000 </r>
       <r>    7.2777    0.0000 </r>
       <r>    7.2777    0.0000 </r>
       <r>    7.3014    0.0000 </r>
       <r>    7.3835    0.0000 </r>
       <r>    7.4105    0.0000 </r>
       <r>    7.6143    0.0000 </r>
       <r>    7.6143    0.0000 </r>
       <r>    7.6143    0.0000 </r>
       <r>    7.6143    0.0000 </r>
       <r>    7.6279    0.0000 </r>
       <r>    7.8673    0.0000 </r>
       <r>    7.8673    0.0000 </r>
       <r>    7.9405    0.0000 </r>
       <r>    7.9405    0.0000 </r>
       <r>    7.9435    0.0000 </r>
       <r>    7.9693    0.0000 </r>
       <r>    7.9693    0.0000 </r>
       <r>    7.9915    0.0000 </r>
       <r>    7.9915    0.0000 </r>
       <r>    8.0070    0.0000 </r>
       <r>    8.0070    0.0000 </r>
       <r>    8.1403    0.0000 </r>
       <r>    8.1458    0.0000 </r>
       <r>    8.2237    0.0000 </r>
       <r>    8.2299    0.0000 </r>
       <r>    8.2416    0.0000 </r>
       <r>    8.2427    0.0000 </r>
       <r>    8.2519    0.0000 </r>
      </set>
      <set comment="kpoint 3">
       <r>  -11.0698    1.0000 </r>
       <r>  -11.0040    1.0000 </r>
       <r>  -10.8949    1.0000 </r>
       <r>  -10.8949    1.0000 </r>
       <r>  -10.8780    1.0000 </r>
       <r>  -10.8780    1.0000 </r>
       <r>  -10.8305    1.0000 </r>
       <r>  -10.8305    1.0000 </r>
       <r>  -10.7568    1.0000 </r>
       <r>  -10.7568    1.0000 </r>
       <r>  -10.7557    1.0000 </r>
       <r>  -10.7557    1.0000 </r>
       <r>  -10.7557    1.0000 </r>
       <r>  -10.7557    1.0000 </r>
       <r>  -10.7376    1.0000 </r>
       <r>  -10.7106    1.0000 </r>
       <r>  -10.7106    1.0000 </r>
       <r>  -10.6961    1.0000 </r>
       <r>  -10.6716    1.0000 </r>
       <r>  -10.6716    1.0000 </r>
       <r>  -10.6716    1.0000 </r>
       <r>  -10.6716    1.0000 </r>
       <r>  -10.6696    1.0000 </r>
       <r>  -10.6614    1.0000 </r>
       <r>  -10.6614    1.0000 </r>
       <r>  -10.6488    1.0000 </r>
       <r>  -10.6488    1.0000 </r>
       <r>  -10.6488    1.0000 </r>
       <r>  -10.6488    1.0000 </r>
       <r>  -10.6325    1.0000 </r>
       <r>  -10.6325    1.0000 </r>
       <r>  -10.6067    1.0000 </r>
       <r>  -10.6067    1.0000 </r>
       <r>  -10.6055    1.0000 </r>
       <r>  -10.6055    1.0000 </r>
       <r>  -10.6045    1.0000 </r>
       <r>   -6.5130    1.0000 </r>
       <r>   -6.5013    1.0000 </r>
       <r>   -6.4907    1.0000 </r>
       <r>   -6.4788    1.0000 </r>
       <r>   -6.4777    1.0000 </r>
       <r>   -6.4656    1.0000 </r>
       <r>   -6.4656    1.0000 </r>
       <r>   -6.4621    1.0000 </r>
       <r>   -6.4621    1.0000 </r>
       <r>   -6.4565    1.0000 </r>
       <r>   -6.4565    1.0000 </r>
       <r>   -6.4534    1.0000 </r>
       <r>   -6.4534    1.0000 </r>
       <r>   -6.4488    1.0000 </r>
       <r>   -6.4488    1.0000 </r>
       <r>   -6.4440    1.0000 </r>
       <r>   -6.4440    1.0000 </r>
       <r>   -6.4401    1.0000 </r>
       <r>   -6.4401    1.0000 </r>
       <r>   -6.4371    1.0000 </r>
       <r>   -6.4304    1.0000 </r>
       <r>   -6.4304    1.0000 </r>
       <r>   -6.4250    1.0000 </r>
       <r>   -6.4203    1.0000 </r>
       <r>   -6.4179    1.0000 </r>
       <r>   -6.4129    1.0000 </r>
       <r>   -6.4093    1.0000 </r>
       <r>   -6.4093    1.0000 </r>
       <r>   -6.4086    1.0000 </r>
       <r>   -6.4086    1.0000 </r>
       <r>   -6.4086    1.0000 </r>
       <r>   -6.4086    1.0000 </r>
       <r>   -6.4056    1.0000 </r>
       <r>   -6.4056    1.0000 </r>
       <r>   -6.3898    1.0000 </r>
       <r>   -6.3898    1.0000 </r>
       <r>   -6.3898    1.0000 </r>
       <r>   -6.3898    1.0000 </r>
       <r>   -6.3826    1.0000 </r>
       <r>   -6.3826    1.0000 </r>
       <r>   -6.3826    1.0000 </r>
       <r>   -6.3826    1.0000 </r>
       <r>   -6.3784    1.0000 </r>
       <r>   -6.3761    1.0000 </r>
       <r>   -6.3745    1.0000 </r>
       <r>   -6.3745    1.0000 </r>
       <r>   -6.3740    1.0000 </r>
       <r>   -6.3740    1.0000 </r>
       <r>   -6.3740    1.0000 </r>
       <r>   -6.3740    1.0000 </r>
       <r>   -6.3427    1.0000 </r>
       <r>   -6.3427    1.0000 </r>
       <r>   -6.3409    1.0000 </r>
       <r>   -6.3409    1.0000 </r>
       <r>   -6.3409    1.0000 </r>
       <r>   -6.3409    1.0000 </r>
       <r>   -6.3363    1.0000 </r>
       <r>   -6.3363    1.0000 </r>
       <r>   -6.3359    1.0000 </r>
       <r>   -6.3359    1.0000 </r>
       <r>   -6.3359    1.0000 </r>
       <r>   -6.3359    1.0000 </r>
       <r>   -6.3304    1.0000 </r>
       <r>   -6.3304    1.0000 </r>
       <r>   -6.2947    1.0000 </r>
       <r>   -6.2947    1.0000 </r>
       <r>   -6.2723    1.0000 </r>
       <r>   -6.2723    1.0000 </r>
       <r>   -6.2715    1.0000 </r>
       <r>   -6.2715    1.0000 </r>
       <r>   -6.2675    1.0000 </r>
       <r>   -6.2675    1.0000 </r>
       <r>   -6.2642    1.0000 </r>
       <r>   -6.2642    1.0000 </r>
       <r>   -6.2577    1.0000 </r>
       <r>   -6.2577    1.0000 </r>
       <r>   -6.2511    1.0000 </r>
       <r>   -6.2494    1.0000 </r>
       <r>   -6.2494    1.0000 </r>
       <r>   -6.2489    1.0000 </r>
       <r>   -6.2327    1.0000 </r>
       <r>   -6.2327    1.0000 </r>
       <r>   -6.2327    1.0000 </r>
       <r>   -6.2327    1.0000 </r>
       <r>   -6.2260    1.0000 </r>
       <r>   -6.1996    1.0000 </r>
       <r>   -6.1996    1.0000 </r>
       <r>   -6.1847    1.0000 </r>
       <r>   -6.1847    1.0000 </r>
       <r>   -6.1783    1.0000 </r>
       <r>   -6.1783    1.0000 </r>
       <r>   -6.1783    1.0000 </r>
       <r>   -6.1783    1.0000 </r>
       <r>   -6.1746    1.0000 </r>
       <r>   -6.1719    1.0000 </r>
       <r>   -6.1719    1.0000 </r>
       <r>   -6.1666    1.0000 </r>
       <r>   -6.1666    1.0000 </r>
       <r>   -6.1666    1.0000 </r>
       <r>   -6.1666    1.0000 </r>
       <r>   -6.1643    1.0000 </r>
       <r>   -6.1637    1.0000 </r>
       <r>   -6.1637    1.0000 </r>
       <r>   -6.1587    1.0000 </r>
       <r>   -6.1587    1.0000 </r>
       <r>   -6.1512    1.0000 </r>
       <r>   -6.1492    1.0000 </r>
       <r>   -6.1492    1.0000 </r>
       <r>   -6.1382    1.0000 </r>
       <r>   -6.1337    1.0000 </r>
       <r>   -6.1325    1.0000 </r>
       <r>   -6.1325    1.0000 </r>
       <r>   -6.1096    1.0000 </r>
       <r>   -6.1096    1.0000 </r>
       <r>   -6.1040    1.0000 </r>
       <r>   -6.1040    1.0000 </r>
       <r>   -6.0975    1.0000 </r>
       <r>   -6.0975    1.0000 </r>
       <r>   -6.0954    1.0000 </r>
       <r>   -6.0898    1.0000 </r>
       <r>   -6.0898    1.0000 </r>
       <r>   -6.0873    1.0000 </r>
       <r>   -6.0873    1.0000 </r>
       <r>   -6.0852    1.0000 </r>
       <r>   -6.0852    1.0000 </r>
       <r>   -6.0852    1.0000 </r>
       <r>   -6.0852    1.0000 </r>
       <r>   -6.0832    1.0000 </r>
       <r>   -6.0832    1.0000 </r>
       <r>   -6.0832    1.0000 </r>
       <r>   -6.0832    1.0000 </r>
       <r>   -6.0768    1.0000 </r>
       <r>   -6.0740    1.0000 </r>
       <r>   -6.0740    1.0000 </r>
       <r>   -6.0740    1.0000 </r>
       <r>   -6.0740    1.0000 </r>
       <r>   -6.0739    1.0000 </r>
       <r>   -6.0739    1.0000 </r>
       <r>   -6.0739    1.0000 </r>
       <r>   -6.0588    1.0000 </r>
       <r>   -6.0588    1.0000 </r>
       <r>   -6.0559    1.0000 </r>
       <r>   -6.0559    1.0000 </r>
       <r>   -6.0514    1.0000 </r>
       <r>   -6.0514    1.0000 </r>
       <r>   -6.0482    1.0000 </r>
       <r>   -6.0452    1.0000 </r>
       <r>   -6.0452    1.0000 </r>
       <r>   -6.0429    1.0000 </r>
       <r>   -6.0289    1.0000 </r>
       <r>   -6.0289    1.0000 </r>
       <r>   -6.0189    1.0000 </r>
       <r>   -5.9559    1.0000 </r>
[...]
       <r>   -12.1111     0.0000     0.0000 </r>
       <r>   -12.0390     0.0000     0.0000 </r>
       <r>   -11.9670     0.0000     0.0000 </r>
       <r>   -11.8949     0.0000     0.0000 </r>
       <r>   -11.8229     0.0000     0.0000 </r>
       <r>   -11.7508     0.0000     0.0000 </r>
       <r>   -11.6788     0.0000     0.0000 </r>
       <r>   -11.6067     0.0000     0.0000 </r>
       <r>   -11.5347     0.0000     0.0000 </r>
       <r>   -11.4626     0.0000     0.0000 </r>
       <r>   -11.3906     0.0000     0.0000 </r>
       <r>   -11.3185     0.0000     0.0000 </r>
       <r>   -11.2465     0.0003     0.0000 </r>
       <r>   -11.1744     0.1884     0.0136 </r>
       <r>   -11.1024     5.1235     0.3828 </r>
       <r>   -11.0303    20.2710     1.8433 </r>
       <r>   -10.9583    36.5649     4.4778 </r>
       <r>   -10.8862    56.0267     8.5145 </r>
       <r>   -10.8142    86.4306    14.7419 </r>
       <r>   -10.7421   151.9120    25.6872 </r>
       <r>   -10.6701   265.7631    44.8355 </r>
       <r>   -10.5980   298.9724    66.3765 </r>
       <r>   -10.5260    76.7433    71.9059 </r>
       <r>   -10.4539     1.3055    72.0000 </r>
       <r>   -10.3819     0.0007    72.0000 </r>
       <r>   -10.3098     0.0000    72.0000 </r>
       <r>   -10.2378     0.0000    72.0000 </r>
       <r>   -10.1657     0.0000    72.0000 </r>
       <r>   -10.0937     0.0000    72.0000 </r>
       <r>   -10.0216     0.0000    72.0000 </r>
       <r>    -9.9496     0.0000    72.0000 </r>
       <r>    -9.8775     0.0000    72.0000 </r>
       <r>    -9.8055     0.0000    72.0000 </r>
       <r>    -9.7334     0.0000    72.0000 </r>
       <r>    -9.6614     0.0000    72.0000 </r>
       <r>    -9.5893     0.0000    72.0000 </r>
       <r>    -9.5173     0.0000    72.0000 </r>
       <r>    -9.4452     0.0000    72.0000 </r>
       <r>    -9.3732     0.0000    72.0000 </r>
       <r>    -9.3011     0.0000    72.0000 </r>
       <r>    -9.2291     0.0000    72.0000 </r>
       <r>    -9.1570     0.0000    72.0000 </r>
       <r>    -9.0850     0.0000    72.0000 </r>
       <r>    -9.0129     0.0000    72.0000 </r>
       <r>    -8.9409     0.0000    72.0000 </r>
       <r>    -8.8688     0.0000    72.0000 </r>
       <r>    -8.7968     0.0000    72.0000 </r>
       <r>    -8.7247     0.0000    72.0000 </r>
       <r>    -8.6527     0.0000    72.0000 </r>
       <r>    -8.5806     0.0000    72.0000 </r>
       <r>    -8.5086     0.0000    72.0000 </r>
       <r>    -8.4365     0.0000    72.0000 </r>
       <r>    -8.3645     0.0000    72.0000 </r>
       <r>    -8.2924     0.0000    72.0000 </r>
       <r>    -8.2204     0.0000    72.0000 </r>
       <r>    -8.1483     0.0000    72.0000 </r>
       <r>    -8.0763     0.0000    72.0000 </r>
       <r>    -8.0042     0.0000    72.0000 </r>
       <r>    -7.9322     0.0000    72.0000 </r>
       <r>    -7.8601     0.0000    72.0000 </r>
       <r>    -7.7881     0.0000    72.0000 </r>
       <r>    -7.7160     0.0000    72.0000 </r>
       <r>    -7.6440     0.0000    72.0000 </r>
       <r>    -7.5719     0.0000    72.0000 </r>
       <r>    -7.4999     0.0000    72.0000 </r>
       <r>    -7.4278     0.0000    72.0000 </r>
       <r>    -7.3558     0.0000    72.0000 </r>
       <r>    -7.2837     0.0000    72.0000 </r>
       <r>    -7.2117     0.0000    72.0000 </r>
       <r>    -7.1396     0.0000    72.0000 </r>
       <r>    -7.0676     0.0000    72.0000 </r>
       <r>    -6.9955     0.0000    72.0000 </r>
       <r>    -6.9235     0.0000    72.0000 </r>
       <r>    -6.8514     0.0000    72.0000 </r>
       <r>    -6.7794     0.0000    72.0000 </r>
       <r>    -6.7073     0.0000    72.0000 </r>
       <r>    -6.6353     0.0167    72.0012 </r>
       <r>    -6.5632     5.6651    72.4094 </r>
       <r>    -6.4912   133.7832    82.0485 </r>
       <r>    -6.4191   590.2703   124.5776 </r>
       <r>    -6.3471   717.3770   176.2648 </r>
       <r>    -6.2750   520.1352   213.7407 </r>
       <r>    -6.2030   425.1026   244.3695 </r>
       <r>    -6.1309   646.9989   290.9859 </r>
       <r>    -6.0589   792.6542   348.0968 </r>
       <r>    -5.9868   391.1485   376.2792 </r>
       <r>    -5.9148    99.0526   383.4160 </r>
       <r>    -5.8427    87.3173   389.7072 </r>
       <r>    -5.7707   104.9170   397.2665 </r>
       <r>    -5.6986   132.6662   406.8251 </r>
       <r>    -5.6266   148.8490   417.5497 </r>
       <r>    -5.5545   145.3826   428.0246 </r>
       <r>    -5.4825    52.5819   431.8131 </r>
       <r>    -5.4104     2.5861   431.9995 </r>
       <r>    -5.3384     0.0076   432.0000 </r>
       <r>    -5.2663     0.0000   432.0000 </r>
       <r>    -5.1943     0.0000   432.0000 </r>
       <r>    -5.1222     0.0000   432.0000 </r>
       <r>    -5.0502     0.0000   432.0000 </r>
       <r>    -4.9781     0.0000   432.0000 </r>
       <r>    -4.9061     0.0000   432.0000 </r>
       <r>    -4.8340     0.0000   432.0000 </r>
       <r>    -4.7620     0.0000   432.0000 </r>
       <r>    -4.6899     0.0000   432.0000 </r>
       <r>    -4.6179     0.0000   432.0000 </r>
       <r>    -4.5458     0.0000   432.0000 </r>
       <r>    -4.4738     0.0000   432.0000 </r>
       <r>    -4.4017     0.0000   432.0000 </r>
       <r>    -4.3297     0.0000   432.0000 </r>
       <r>    -4.2576     0.0000   432.0000 </r>
       <r>    -4.1856     0.0000   432.0000 </r>
       <r>    -4.1135     0.0000   432.0000 </r>
       <r>    -4.0415     0.0000   432.0000 </r>
       <r>    -3.9694     0.0000   432.0000 </r>
       <r>    -3.8974     0.0000   432.0000 </r>
       <r>    -3.8253     0.0000   432.0000 </r>
       <r>    -3.7533     0.0000   432.0000 </r>
       <r>    -3.6812     0.0000   432.0000 </r>
       <r>    -3.6092     0.0000   432.0000 </r>
       <r>    -3.5371     0.0000   432.0000 </r>
       <r>    -3.4651     0.0000   432.0000 </r>
       <r>    -3.3930     0.0000   432.0000 </r>
       <r>    -3.3210     0.0000   432.0000 </r>
       <r>    -3.2489     0.0004   432.0000 </r>
       <r>    -3.1769     0.0837   432.0061 </r>
       <r>    -3.1048     1.0585   432.0823 </r>
       <r>    -3.0328     5.2719   432.4622 </r>
       <r>    -2.9607    23.7972   434.1768 </r>
       <r>    -2.8887    52.2382   437.9405 </r>
       <r>    -2.8166    77.5469   443.5278 </r>
       <r>    -2.7446   103.7324   451.0018 </r>
       <r>    -2.6725    99.0934   458.1415 </r>
       <r>    -2.6005    69.2880   463.1337 </r>
       <r>    -2.5284    52.2126   466.8956 </r>
       <r>    -2.4564    39.9854   469.7766 </r>
       <r>    -2.3843    42.6405   472.8488 </r>
       <r>    -2.3123    53.2520   476.6856 </r>
       <r>    -2.2402    42.6074   479.7555 </r>
       <r>    -2.1682    27.7508   481.7550 </r>
       <r>    -2.0961    22.8097   483.3984 </r>
       <r>    -2.0241    23.6610   485.1032 </r>
       <r>    -1.9520    23.4226   486.7908 </r>
       <r>    -1.8800    21.0356   488.3064 </r>
       <r>    -1.8079    21.2038   489.8342 </r>
       <r>    -1.7359    25.7781   491.6915 </r>
       <r>    -1.6638    15.4012   492.8011 </r>
       <r>    -1.5918    18.6928   494.1480 </r>
       <r>    -1.5197    23.8918   495.8694 </r>
       <r>    -1.4477    37.7102   498.5864 </r>
       <r>    -1.3756    50.7867   502.2456 </r>
       <r>    -1.3036    44.5600   505.4562 </r>
       <r>    -1.2315    30.4713   507.6516 </r>
       <r>    -1.1595    51.6626   511.3739 </r>
       <r>    -1.0874    48.4955   514.8680 </r>
       <r>    -1.0154    30.9562   517.0984 </r>
       <r>    -0.9433    44.3706   520.2953 </r>
       <r>    -0.8713    60.3188   524.6413 </r>
       <r>    -0.7992    70.2098   529.7000 </r>
       <r>    -0.7272    55.2103   533.6779 </r>
       <r>    -0.6551    49.7157   537.2599 </r>
       <r>    -0.5831    67.4308   542.1183 </r>
       <r>    -0.5110    74.8056   547.5081 </r>
       <r>    -0.4390    69.6472   552.5262 </r>
       <r>    -0.3669    69.8646   557.5599 </r>
       <r>    -0.2949    70.8815   562.6670 </r>
       <r>    -0.2228    81.0786   568.5087 </r>
       <r>    -0.1508    91.2371   575.0824 </r>
       <r>    -0.0787    91.4177   581.6690 </r>
       <r>    -0.0067   103.2479   589.1081 </r>
       <r>     0.0654   116.5234   597.5036 </r>
       <r>     0.1374   109.9207   605.4234 </r>
       <r>     0.2095   100.1799   612.6414 </r>
       <r>     0.2816    77.8800   618.2527 </r>
       <r>     0.3536    77.8432   623.8613 </r>
       <r>     0.4257    64.0617   628.4770 </r>
       <r>     0.4977    54.6137   632.4119 </r>
       <r>     0.5698    45.8204   635.7133 </r>
       <r>     0.6418    37.9399   638.4469 </r>
       <r>     0.7139    38.2228   641.2008 </r>
       <r>     0.7859    26.3066   643.0962 </r>
       <r>     0.8580    26.8525   645.0309 </r>
       <r>     0.9300    18.6045   646.3714 </r>
       <r>     1.0021    14.5325   647.4185 </r>
       <r>     1.0741     6.8520   647.9122 </r>
       <r>     1.1462     1.1957   647.9983 </r>
       <r>     1.2182     0.0234   648.0000 </r>
       <r>     1.2903     0.0000   648.0000 </r>
       <r>     1.3623     0.0000   648.0000 </r>
       <r>     1.4344     0.0000   648.0000 </r>
       <r>     1.5064     0.0000   648.0000 </r>
       <r>     1.5785     0.0000   648.0000 </r>
       <r>     1.6505     0.0000   648.0000 </r>
       <r>     1.7226     0.0000   648.0000 </r>
       <r>     1.7946     0.0000   648.0000 </r>
       <r>     1.8667     0.0000   648.0000 </r>
       <r>     1.9387     0.0000   648.0000 </r>
       <r>     2.0108     0.0000   648.0000 </r>
       <r>     2.0828     0.0000   648.0000 </r>
       <r>     2.1549     0.0019   648.0001 </r>
       <r>     2.2269     0.0795   648.0059 </r>
       <r>     2.2990     0.1307   648.0153 </r>
       <r>     2.3710     0.0118   648.0161 </r>
       <r>     2.4431     0.1212   648.0249 </r>
       <r>     2.5151     0.5241   648.0626 </r>
       <r>     2.5872     0.9530   648.1313 </r>
       <r>     2.6592     0.3483   648.1564 </r>
       <r>     2.7313     1.6922   648.2783 </r>
       <r>     2.8033     0.7885   648.3351 </r>
       <r>     2.8754     0.1560   648.3464 </r>
       <r>     2.9474     0.9215   648.4128 </r>
       <r>     3.0195     1.0454   648.4881 </r>
       <r>     3.0915     3.9119   648.7699 </r>
       <r>     3.1636     2.7069   648.9650 </r>
       <r>     3.2356     1.9143   649.1029 </r>
       <r>     3.3077     0.6938   649.1529 </r>
       <r>     3.3797     1.9252   649.2916 </r>
       <r>     3.4518     2.7719   649.4913 </r>
       <r>     3.5238     6.6442   649.9700 </r>
       <r>     3.5959     4.5145   650.2953 </r>
       <r>     3.6679     2.0046   650.4397 </r>
       <r>     3.7400     5.0541   650.8039 </r>
       <r>     3.8120     6.8427   651.2969 </r>
       <r>     3.8841     6.2664   651.7484 </r>
       <r>     3.9561     5.0314   652.1109 </r>
       <r>     4.0282    10.8825   652.8950 </r>
       <r>     4.1002    17.4658   654.1534 </r>
       <r>     4.1723    18.2468   655.4681 </r>
       <r>     4.2443     5.8570   655.8901 </r>
       <r>     4.3164     5.8277   656.3100 </r>
       <r>     4.3884    33.0248   658.6894 </r>
       <r>     4.4605    49.3689   662.2465 </r>
       <r>     4.5325    40.8148   665.1872 </r>
       <r>     4.6046    29.9119   667.3423 </r>
       <r>     4.6766    31.1778   669.5887 </r>
       <r>     4.7487    39.4961   672.4344 </r>
       <r>     4.8207    50.6970   676.0871 </r>
       <r>     4.8928    49.3237   679.6409 </r>
       <r>     4.9648    38.3635   682.4050 </r>
       <r>     5.0369    39.3572   685.2407 </r>
       <r>     5.1089    58.3202   689.4427 </r>
       <r>     5.1810    69.8379   694.4745 </r>
       <r>     5.2530    67.7589   699.3566 </r>
       <r>     5.3251    35.8258   701.9378 </r>
       <r>     5.3971    24.3748   703.6941 </r>
       <r>     5.4692    29.5416   705.8225 </r>
       <r>     5.5412    50.1319   709.4345 </r>
       <r>     5.6133    40.8105   712.3750 </r>
       <r>     5.6853    11.0091   713.1682 </r>
       <r>     5.7574    19.1081   714.5449 </r>
       <r>     5.8294    17.1903   715.7835 </r>
       <r>     5.9015    20.4836   717.2593 </r>
       <r>     5.9735    29.5453   719.3881 </r>
       <r>     6.0456    10.4433   720.1405 </r>
       <r>     6.1176     7.3301   720.6687 </r>
       <r>     6.1897    14.6758   721.7261 </r>
       <r>     6.2617    20.2740   723.1868 </r>
       <r>     6.3338    22.0185   724.7732 </r>
       <r>     6.4058    36.2047   727.3818 </r>
       <r>     6.4779    80.7243   733.1980 </r>
       <r>     6.5499   112.4378   741.2992 </r>
       <r>     6.6220    93.0246   748.0016 </r>
       <r>     6.6940    82.7475   753.9636 </r>
       <r>     6.7661    66.8257   758.7784 </r>
       <r>     6.8381    69.6115   763.7939 </r>
       <r>     6.9102    67.4088   768.6508 </r>
       <r>     6.9822    52.6794   772.4463 </r>
       <r>     7.0543    42.2831   775.4928 </r>
       <r>     7.1263    37.2407   778.1760 </r>
       <r>     7.1984    36.5643   780.8105 </r>
       <r>     7.2704    32.7707   783.1716 </r>
       <r>     7.3425    33.5935   785.5920 </r>
       <r>     7.4145    20.9309   787.1001 </r>
       <r>     7.4866    13.4942   788.0724 </r>
       <r>     7.5586    21.7539   789.6398 </r>
       <r>     7.6307    33.4199   792.0477 </r>
       <r>     7.7027    31.6267   794.3264 </r>
       <r>     7.7748    40.3638   797.2346 </r>
       <r>     7.8468    59.8480   801.5467 </r>
       <r>     7.9189   109.3368   809.4244 </r>
       <r>     7.9909    99.8812   816.6209 </r>
       <r>     8.0630    69.6509   821.6392 </r>
       <r>     8.1350    61.8719   826.0971 </r>
       <r>     8.2071    50.3139   829.7222 </r>
       <r>     8.2791    19.2245   831.1074 </r>
       <r>     8.3512     8.2401   831.7011 </r>
       <r>     8.4232     2.5104   831.8820 </r>
       <r>     8.4953     0.9977   831.9538 </r>
       <r>     8.5673     0.6064   831.9975 </r>
       <r>     8.6394     0.0341   832.0000 </r>
       <r>     8.7114     0.0001   832.0000 </r>
       <r>     8.7835     0.0000   832.0000 </r>
       <r>     8.8555     0.0000   832.0000 </r>
       <r>     8.9276     0.0000   832.0000 </r>
       <r>     8.9996     0.0000   832.0000 </r>
       <r>     9.0717     0.0000   832.0000 </r>
       <r>     9.1437     0.0000   832.0000 </r>
       <r>     9.2158     0.0000   832.0000 </r>
       <r>     9.2878     0.0000   832.0000 </r>
       <r>     9.3599     0.0000   832.0000 </r>
       <r>     9.4319     0.0000   832.0000 </r>
       <r>     9.5040     0.0000   832.0000 </r>
      </set>
     </set>
    </array>
   </total>
  </dos>
 </calculation>
 <structure name="finalpos" >
  <crystal>
   <varray name="basis" >
    <v>       6.25325715     -10.83095910       0.00000000 </v>
    <v>       6.25325715      10.83095910       0.00000000 </v>
    <v>       0.00000000       0.00000000      13.55923482 </v>
   </varray>
   <i name="volume">   1836.70065798 </i>
   <varray name="rec_basis" >
    <v>       0.07995833      -0.04616396       0.00000000 </v>
    <v>       0.07995833       0.04616396       0.00000000 </v>
    <v>       0.00000000       0.00000000       0.07375047 </v>
   </varray>
  </crystal>
  <varray name="positions" >
   <v>       0.22222222       0.11111111       0.25011218 </v>
   <v>       0.22222222       0.77777778       0.75011218 </v>
   <v>       0.11111111       0.88888889       0.50011218 </v>
   <v>       0.55555556       0.77777778       0.25011218 </v>
   <v>       0.44444444       0.88888889       0.50011218 </v>
   <v>       0.55555556       0.11111111       0.25011218 </v>
   <v>       0.44444444       0.22222222       0.00011218 </v>
   <v>       0.88888889       0.44444444       0.75011218 </v>
   <v>       0.77777778       0.55555556       0.00011218 </v>
   <v>       0.55555556       0.11111111       0.75011218 </v>
   <v>       0.44444444       0.22222222       0.50011218 </v>
   <v>       0.55555556       0.44444444       0.25011218 </v>
   <v>       0.44444444       0.55555556       0.00011218 </v>
   <v>       0.77777778       0.22222222       0.50011218 </v>
   <v>       0.88888889       0.11111111       0.75011218 </v>
   <v>       0.88888889       0.44444444       0.25011218 </v>
   <v>       0.55555556       0.44444444       0.75011218 </v>
   <v>       0.77777778       0.55555556       0.50011218 </v>
   <v>       0.22222222       0.77777778       0.25011218 </v>
   <v>       0.11111111       0.22222222       0.00011218 </v>
   <v>       0.77777778       0.88888889       0.50011218 </v>
   <v>       0.88888889       0.77777778       0.75011218 </v>
   <v>       0.22222222       0.11111111       0.75011218 </v>
   <v>       0.11111111       0.22222222       0.50011218 </v>
   <v>       0.55555556       0.77777778       0.75011218 </v>
   <v>       0.11111111       0.88888889       0.00011218 </v>
   <v>       0.88888889       0.11111111       0.25011218 </v>
   <v>       0.11111111       0.55555556       0.00011218 </v>
   <v>       0.77777778       0.88888889       0.00011218 </v>
   <v>       0.88888889       0.77777778       0.25011218 </v>
   <v>       0.22222222       0.44444444       0.75011218 </v>
   <v>       0.11111111       0.55555556       0.50011218 </v>
   <v>       0.77777778       0.22222222       0.00011218 </v>
   <v>       0.44444444       0.88888889       0.00011218 </v>
   <v>       0.22222222       0.44444444       0.25011218 </v>
   <v>       0.44444444       0.55555556       0.50011218 </v>
   <v>       0.88888889       0.11111111       0.43838781 </v>
   <v>       0.77777778       0.22222222       0.18838781 </v>
   <v>       0.88888889       0.44444444       0.43838781 </v>
   <v>       0.77777778       0.22222222       0.68838781 </v>
   <v>       0.77777778       0.55555556       0.18838781 </v>
   <v>       0.88888889       0.44444444       0.93838781 </v>
   <v>       0.77777778       0.55555556       0.68838781 </v>
   <v>       0.88888889       0.77777778       0.43838781 </v>
   <v>       0.77777778       0.88888889       0.18838781 </v>
   <v>       0.88888889       0.11111111       0.93838781 </v>
   <v>       0.44444444       0.88888889       0.68838781 </v>
   <v>       0.44444444       0.55555556       0.18838781 </v>
   <v>       0.44444444       0.88888889       0.18838781 </v>
   <v>       0.22222222       0.11111111       0.43838781 </v>
   <v>       0.11111111       0.22222222       0.18838781 </v>
   <v>       0.22222222       0.11111111       0.93838781 </v>
   <v>       0.11111111       0.22222222       0.68838781 </v>
   <v>       0.22222222       0.44444444       0.43838781 </v>
   <v>       0.11111111       0.55555556       0.18838781 </v>
   <v>       0.22222222       0.44444444       0.93838781 </v>
   <v>       0.11111111       0.55555556       0.68838781 </v>
   <v>       0.22222222       0.77777778       0.43838781 </v>
   <v>       0.11111111       0.88888889       0.18838781 </v>
   <v>       0.22222222       0.77777778       0.93838781 </v>
   <v>       0.11111111       0.88888889       0.68838781 </v>
   <v>       0.55555556       0.11111111       0.43838781 </v>
   <v>       0.44444444       0.22222222       0.18838781 </v>
   <v>       0.55555556       0.11111111       0.93838781 </v>
   <v>       0.44444444       0.22222222       0.68838781 </v>
   <v>       0.55555556       0.44444444       0.43838781 </v>
   <v>       0.88888889       0.77777778       0.93838781 </v>
   <v>       0.55555556       0.44444444       0.93838781 </v>
   <v>       0.44444444       0.55555556       0.68838781 </v>
   <v>       0.55555556       0.77777778       0.43838781 </v>
   <v>       0.55555556       0.77777778       0.93838781 </v>
   <v>       0.77777778       0.88888889       0.68838781 </v>
  </varray>
 </structure>
</modeling>
