72
Lattice="12.39778545 0.0 0.0 -6.19889272 10.73679715 0.0 0.0 0.0 13.44794642" Properties=species:S:1:pos:R:3:forces:R:3 ref_energy_eV=-267.2433388 ref_gap_eV=2.1572 energy=-240.49451305 stress="-0.002032254514096078 -0.0019709532138992504 0.0002783722994143443 -0.0019709532138992504 -0.01013836444067528 0.0011240851205909694 0.0002783722994143443 0.0011240851205909694 -0.00960875379164689" free_energy=-240.49451305 pbc="T T T"
Cd      -0.06733727       2.52455331       0.07249600       0.14541345      -0.48791060      -0.27756915
Cd       4.10224471       2.36418067      13.35766578       0.02775071      -0.28319167      -0.12321987
Cd       8.20124250       2.42804196       0.01679232       0.14739318      -0.37728456      -0.27205128
Cd      -2.17533521       6.07175188      13.39970030       1.07989786      -1.06130892       0.21012364
Cd       2.13146726       5.96183392       0.04396994      -0.26857270      -0.20344884      -0.86004857
Cd       6.22226850       6.00439920       0.06154991      -0.24279091      -0.32792900      -1.43402419
Cd      -4.17884610       9.55312464       0.07538045       0.14662247       0.08492924      -0.98115976
Cd      -0.00797915       9.46176974       0.01536683       0.03718087      -0.26718140      -1.35852192
Cd       4.12768342       9.53196671       0.01324986       0.09729661       0.23312785      -0.99735812
Cd       0.04196235       2.35325673       6.75039708       0.39667852       0.20029312      -0.29285319
Cd       4.14183722       2.39699587       6.73149505       0.44369859       0.87098188       0.46904212
Cd       8.27241869       2.38806565       6.75594369      -0.56852458       0.43843024       0.08033724
Cd      -2.08753973       6.20382253       6.75529913       0.16702997      -1.80217487       0.59350952
Cd       2.06728895       5.96536729       6.72371326      -0.00619827      -0.09450261       0.43341585
Cd       6.10295154       5.89957252       6.73471341       1.49316544       0.69213056       0.61805962
Cd      -4.06641548       9.45372004       6.71613709      -0.58184742       0.20854711       0.43673031
Cd       0.09533191       9.57624171       6.57360406      -0.58059260      -0.78426495       0.96676561
Cd       4.01965395       9.70744076       6.68706936       0.35962765      -1.92270994       0.79309168
Cd       2.06417487       1.15157303       3.36866929       0.35291816       0.71896527       0.37751323
Cd       6.12418745       1.14713090       3.39608710       0.00577146       0.68577155      -0.73297963
Cd      10.18293980       1.17417528       3.34171638       0.61198343       0.39168561       0.51046875
Cd      -0.01093206       4.77211627       3.41363882      -0.20268818       0.28082149      -0.64038957
Cd       4.13780268       4.76779503       3.37731081      -0.10659860       0.43980914      -0.46212429
Cd       8.31065674       4.90901590       3.34614331      -0.29455380      -0.73199794      -0.01072932
Cd      -2.13820006       8.45166249       3.29257247       0.77013920      -0.79841135       0.21295178
Cd       2.01902127       8.27832141       3.18950271       0.08210925       2.36825362       0.91257229
Cd       6.24429447       8.33622077       3.42572261      -0.40048504      -0.06944429      -0.50418465
Cd       2.06021842       1.19872529      10.05336347      -0.67416230      -0.48002006       0.13104478
Cd       6.06149625       1.13537786      10.02532773       0.79673457       0.16123199       0.70173069
Cd      10.34120547       1.18731755      10.08727274       0.25235500       0.60345811       0.00068599
Cd      -0.02591565       4.79219708      10.07389876      -0.25563681       0.58297751       0.59830715
Cd       4.03810446       4.78520270      10.20638900       0.38345916      -0.29711578      -1.29933667
Cd       8.28831147       4.79760875      10.09129999      -1.19634616      -0.34953510       0.66609671
Cd      -1.89511934       8.35138371      10.17145110      -1.06375353      -0.39347873      -0.85105962
Cd       2.13579508       8.43831376      10.18816071      -0.00237445      -0.24103667      -1.36506961
Cd       6.19878797       8.35611423      10.12343373      -0.31950121      -1.11936401       0.65495783
S        0.00394684       2.38189446       2.59320099      -0.24429895      -0.06262744       0.19587630
S        4.11340328       2.53815662       2.35423072      -0.12546777      -0.83187603       1.14520021
S        8.24891992       2.38944597       2.52855739      -0.64529660       0.43065824       0.34863098
S       -2.16175380       5.98411406       2.37477568       1.11551600       0.49602868       1.04478445
S        2.01107410       6.14748130       2.44803619       0.14611789      -2.59528239       0.30754238
S        6.23234573       5.90219444       2.40164643      -0.49484788       0.56482590       1.62663697
S       -4.09746908       9.58702855       2.49498916      -0.76610747      -0.05430992       0.46662366
S       -0.05752243       9.62421469       2.36480336       0.04543529      -0.48385205       1.55218622
S        4.05476981       9.68103339       2.37189715       0.34500574      -1.02547548       1.64206414
S        0.04120435       2.58816390       9.19861913      -0.20238792      -1.62917318       0.28922294
S        4.09170337       2.30284565       9.28857257       0.01088056       0.92276057      -0.46538866
S        8.24041188       2.41445014       9.32628304      -0.31618954      -0.43963617      -0.27124827
S       -2.17169137       5.85663091       9.31269563       1.16467268       1.28407706      -0.72904733
S        2.03669140       5.88564839       9.34168833       0.07550000       1.08588746      -0.82725558
S        6.11665047       5.93708839       9.31843683       0.15646685      -0.13548830      -0.26426282
S       -4.34783758       9.45214764       9.23893190       2.12266063       0.88489753      -0.25352413
S       -0.00839038       9.53091579       9.25830098       0.66276029      -0.13110384      -0.70412433
S        4.27698989       9.57592713       9.39295217      -1.28603376       0.03472587      -1.10087039
S        2.24053696       1.14859421       6.06689606      -1.46200652      -0.21608604      -1.15887102
S        6.01692683       1.05168925       5.83815994       0.91053254       1.48358439       0.10455497
S       10.32069655       1.19136747       6.10017892       0.16324829       1.28872266      -1.42343999
S        0.02688243       4.78016672       5.85332304      -0.28736110       0.06552525       0.57374077
S        4.20822073       4.87881544       5.83561814      -1.26040793      -1.05966821      -0.00340751
S        8.36488893       4.84380629       5.81635934      -0.52028259      -0.35263651       0.66270276
S       -2.06390056       8.35236398       5.88913922       0.55661722       1.08107563      -0.94982379
S        2.02816693       8.34923141       5.88970336       0.75625368      -0.25402585      -0.60573383
S        6.19921123       8.35117445       5.89610458      -0.36365357       0.10770633       0.16863859
S        2.06936526       1.19330428      12.62128286      -0.70493419      -0.20012195      -0.11291466
S        6.12253160       1.11182616      12.69772341       0.56212152       0.13622336      -0.72304372
S       10.34113164       1.17501178      12.60716561      -0.12878756       0.41285535       0.19206466
S       -0.02685980       4.82576171      12.62225986       0.07534047       0.28441544       0.08555077
S        4.05393420       4.65242417      12.53248325       0.58140249       0.85856054       1.51530393
S        8.34224469       4.82353575      12.72748452      -1.31674200      -0.80144818      -0.93848387
S       -2.12699667       8.21800552      12.54830059       0.10220985       2.03209224       0.45502591
S        2.15822360       8.31308974      12.53623577      -0.59320668       0.00687576       1.32173758
S        6.17996199       8.34754638      12.66074815       0.13267103      -0.05778971      -0.07137367
