72
Lattice="12.39778545 0.0 0.0 -6.19889272 10.73679715 0.0 0.0 0.0 13.44794642" Properties=species:S:1:pos:R:3:forces:R:3 ref_energy_eV=-266.93886726 ref_gap_eV=2.1399 energy=-240.26848756 stress="-0.004488825131157476 -0.0015283868196611747 0.0009554443936621947 -0.0015283868196611747 -0.006516454674508255 0.0016179762183183145 0.0009554443936621947 0.0016179762183183145 -0.008731069245671021" free_energy=-240.26848756 pbc="T T T"
Cd      -0.03573786       2.40945195      13.42901117       0.40000573      -0.02956985       0.07591119
Cd       4.27961983       2.30727329       0.15195588      -1.02230366       0.55521878       0.30393115
Cd       8.17934027       2.43161291      13.32983943       0.86776753       0.11379894       0.46351088
Cd      -2.04079097       5.95124443       0.08323929       0.09018230       0.08379166      -0.58585240
Cd       2.22451270       5.93769792       0.15964756      -0.45192474       0.14212897      -1.51587766
Cd       6.23650240       5.99601161       0.21665233      -0.07118708      -0.24024890      -1.87303900
Cd      -4.08757174       9.54471837       0.03453540      -0.23357192       0.52943316      -0.32049316
Cd      -0.00466510       9.51894641      13.28207205      -0.38930023      -0.00713517       0.72812441
Cd       4.14650128       9.53054537       0.05583251      -0.35195289      -0.32830095      -0.57342576
Cd      -0.09886471       2.30841042       6.82459491       0.12907955       0.13691307      -0.77498146
Cd       4.19015332       2.35009013       6.59363262       0.13656149       0.24664282       0.68138763
Cd       8.26730702       2.57444088       6.80302952      -0.26788731      -0.93352732      -0.48421918
Cd      -2.14907794       6.06020960       6.56168487       2.37697319      -0.44172913       1.82215805
Cd       2.19502011       5.89290593       6.75324038      -0.51576961       0.53766954      -0.33402097
Cd       6.35711395       5.96489261       6.58867665      -0.45341568       0.09458325       0.77209553
Cd      -4.02029888       9.65392878       6.68388569      -0.31929219      -1.31047245       0.26899253
Cd      -0.08321678       9.57662588       6.76486936       0.10108188       0.02846653       0.51989279
Cd       4.06950192       9.53011278       6.77973983      -0.27473038      -0.55825366       0.10825263
Cd       1.87707778       1.15450804       3.35369232       1.03242809      -0.45256953       0.30048343
Cd       6.36824902       1.27112909       3.41949043      -0.95196703      -0.40615992      -0.38713657
Cd      10.33174242       1.20579740       3.35995139      -0.28739006      -0.16080863       0.22634937
Cd      -0.05362662       4.71094970       3.44685068      -0.02650906       0.48687051      -0.27795826
Cd       4.07971050       4.81092839       3.46675055      -0.25849249      -0.10231990      -1.24404754
Cd       8.21618952       4.81718462       3.41465804       0.13850371       0.60872364       0.27662627
Cd      -2.00675074       8.34799818       3.23839339      -0.37675445      -0.17305908       0.62301679
Cd       2.20950314       8.23176226       3.32001355      -1.77689354       0.43545320       1.10477319
Cd       6.19114951       8.30719234       3.31765787       0.33255632       0.37403574       0.88918590
Cd       2.11425814       1.15819452       9.89663156      -0.15620894      -0.02863338       0.54266819
Cd       6.36886965       1.28727745      10.10825476      -1.41276726      -0.68176301      -0.19128165
Cd      10.33192213       1.26870848      10.11190601      -0.25825376      -1.06004028      -0.11124045
Cd       0.11420853       4.75547584      10.26701207      -0.16433926       0.17589585      -1.31001843
Cd       4.11751407       4.87606897      10.15124126       0.26768267       0.15956212      -0.24021204
Cd       8.38487503       4.72172311      10.03020947      -0.65118610       0.76125493       0.14855872
Cd      -2.23481866       8.26762939      10.13628996       1.10766873      -0.15871920      -0.29933517
Cd       1.86431079       8.33927378      10.11350134       2.73144881      -1.16106762      -0.23106374
Cd       6.26145995       8.45931729      10.27947038      -0.56084908      -0.22666265      -1.61438160
S        0.03429197       2.40155944       2.57812114      -1.19750351       0.07452979      -0.66311500
S        4.00580017       2.37904437       2.73369277       0.69586114       0.02023207      -0.61005853
S        8.21649104       2.58651193       2.58459229       0.76125003      -1.19087691      -0.91843480
S       -2.13763385       5.93498774       2.50951214       0.39191174       0.10415397       0.65426995
S        1.97593952       6.00913960       2.47760567      -0.07228926      -1.00874925       1.27455311
S        6.18863486       5.98336141       2.55063058      -0.31191996      -0.42775150       1.22177318
S       -4.14744988       9.52775863       2.53965329      -0.08102206      -0.13838970       0.12392874
S       -0.07503195       9.60248127       2.56768836       1.06964617       0.19351429      -0.69896727
S        4.09136361       9.33660811       2.53175154       0.91874519       1.74113930      -0.30370375
S       -0.11203897       2.37537604       9.27314738       1.11020545       0.39162211       0.12003180
S        4.08035927       2.54564457       9.25716570       0.65992931      -0.77731784      -0.46354919
S        8.28958013       2.37166422       9.22795985       0.33350832       0.41162213       0.17962195
S       -2.00658405       5.96703772       9.27203684       0.30716199      -0.43680844      -0.44077123
S        2.09577658       5.98662615       9.21014549      -0.34439313      -0.15163366       0.35308358
S        6.12657738       6.09359632       9.24832610       0.76074015      -0.50127108      -0.21440743
S       -4.09176077       9.41708308       9.22460419      -0.60272849       1.12427981      -0.38171940
S        0.08990527       9.44146206       9.38330058      -3.00431618       2.14477696      -1.28227325
S        4.13397833       9.54712202       9.26367626      -0.13978651       0.04910196       0.61661095
S        2.20543858       1.12466834       5.86471210      -1.12511374       0.99068601      -0.07125172
S        6.24040535       1.18261139       5.86191654       0.38429238       0.27308348       0.72836190
S       10.15431294       1.10418768       5.97363321       0.63737487       0.71574877      -0.71325588
S        0.01361494       4.78910939       5.88000255       0.11266742      -0.39837765       0.63025688
S        4.18893629       4.73737500       5.82487256       0.43380244       0.29442607       1.06257694
S        8.50334294       4.82153495       5.94614143      -2.52478062      -1.13115492      -1.07369416
S       -2.02204874       8.24409648       5.97105375      -0.22319250       2.19288299      -1.15545338
S        1.90838579       8.41902843       5.90773087       0.91513014      -0.78775142      -0.34088915
S        6.16973896       8.37474365       6.02060204       0.41323558       0.17832603      -0.91485445
S        2.09615167       1.30517913      12.61441406       0.15746348      -0.54723897      -0.14047960
S        6.20449256       1.21480181      12.61424219       0.10931782      -0.42828141      -0.17702921
S       10.42034828       1.12151376      12.58145126      -0.82971516       0.28163656       0.56668869
S       -0.00462431       4.78536440      12.62959867       0.32317035       0.14272052       1.13324178
S        4.13278337       4.77203875      12.61919278       0.67016464      -0.23553588       0.62667815
S        8.32698208       4.82082868      12.62016507      -0.50497577      -0.09123765      -0.13882512
S       -2.12784462       8.30272648      12.55736531       0.23639178       0.11507866       0.84439497
S        1.93777424       8.28504394      12.49194186       1.06993491      -0.17258015       1.48553774
S        6.20951664       8.33475381      12.60862418       0.01083829      -0.02400715       1.59378864
