72
Lattice="12.39778545 0.0 0.0 -6.19889272 10.73679715 0.0 0.0 0.0 13.44794642" Properties=species:S:1:pos:R:3:forces:R:3 ref_energy_eV=-267.60643736 ref_gap_eV=2.1902 energy=-240.89269742 stress="-0.0065196925759559805 -0.004865748481654539 -0.0012956358075949777 -0.004865748481654539 -0.006689911549606855 -0.0003039428135937009 -0.0012956358075949777 -0.0003039428135937009 -0.005142948619413534" free_energy=-240.89269742 pbc="T T T"
Cd       0.08843508       2.40773460       0.03602974      -0.29174786      -0.64134224       0.33698858
Cd       4.19117068       2.34036818      13.41049564      -0.55617604       0.28968216       0.34070819
Cd       8.13945950       2.34721471      13.36129592       1.49731688       0.44795755       0.29266663
Cd      -2.25819333       5.80523580      13.44527216       1.60757839       1.43070642      -0.40408162
Cd       2.04343238       5.95139378      13.42125763      -0.33812514       0.46957022      -0.50905370
Cd       6.17133840       5.91672337       0.05043020       0.50182150       0.54946116      -0.23361613
Cd      -4.12774571       9.55689959      13.43676714       0.63799305      -1.73176061       0.51772258
Cd       0.00672029       9.36752686       0.06183810      -0.54429422       0.83253820       0.41735435
Cd       4.12704617       9.54692285      13.44523908       0.77352506      -0.12433354       0.05676457
Cd       0.00038303       2.38486136       6.72674134       0.55966208      -0.19422703      -1.15358391
Cd       4.02038399       2.28926038       6.79748816       1.19923248       0.39270463      -0.05734326
Cd       8.36787134       2.49486242       6.59276146      -0.68613261      -1.46992418       1.07470474
Cd      -1.98915475       5.98134880       6.78719644       0.09372302      -1.17482350      -0.22007550
Cd       2.23742555       5.96691435       6.77885468      -0.58855092      -0.16180066      -0.58627719
Cd       6.16104161       6.02406096       6.59074333      -0.06653591      -0.90753767       0.47915165
Cd      -4.16114522       9.48961831       6.58627996       0.63754914      -0.06723709       0.81152560
Cd      -0.00439383       9.56833503       6.71371727       0.11397007       0.27053062      -0.08623153
Cd       4.09484702       9.43488179       6.69339177       0.53532797       1.15742414       0.15109419
Cd       2.13496771       1.08536865       3.40218427      -0.02078643       0.52228766       0.18446129
Cd       6.33033498       1.18385761       3.26210118      -0.06929262      -0.25931621       0.60920817
Cd      10.35179070       1.16763378       3.42114533      -0.18664156       0.18921375       0.02252583
Cd       0.07698529       4.75035460       3.23553126      -0.79871467       0.03424178       0.94792869
Cd       4.23250205       4.76489888       3.33533425      -0.97178128      -0.75367799      -0.09436733
Cd       8.31760180       4.74845000       3.34539318       0.23466587       0.48191671       0.24725038
Cd      -2.13765555       8.35077139       3.40411552      -0.53151392      -0.77357568       0.45694879
Cd       2.02395726       8.30741223       3.32938381      -0.12677411       0.10674944       0.16869614
Cd       6.20131761       8.34518868       3.37282336      -0.29126685       0.05887483      -0.38282511
Cd       1.90516317       1.16588872      10.06344419       0.26599892       0.35211042       0.16434889
Cd       6.15176242       1.21773575      10.01434547       0.56662724      -0.14668144       0.31934945
Cd      10.45507070       1.03676510      10.11766779      -0.31142554       0.35442519      -0.25523412
Cd      -0.00587884       4.76755742      10.12239824       0.02218318      -0.19059429      -0.54214869
Cd       4.20379937       4.75367560       9.93501778      -0.26051670      -0.02795478       0.62123178
Cd       8.26426999       4.76350149      10.07175475      -0.09007029      -0.37371222      -0.31164231
Cd      -2.07405131       8.36814632      10.09716222      -0.29756638      -0.22366205      -0.69282387
Cd       2.03137046       8.38876097      10.08358208      -0.09564806       0.25129407      -0.12526589
Cd       6.09179155       8.31110461      10.19874747       0.42898695       0.68494735      -0.83917622
S        0.03103308       2.35625745       2.76417227       0.25041636      -0.29496769      -1.06092215
S        4.20538548       2.23417825       2.60396823      -0.35689072       0.82879922      -0.62844349
S        8.33074661       2.44162798       2.51240170       0.14986265      -0.45175823      -0.37604600
S       -2.00510859       5.99583832       2.33409094      -0.19146943      -0.07130247       1.76544123
S        2.01496942       5.89078262       2.42832043       1.02114165       0.61976934       0.50224901
S        6.16992747       5.91611406       2.55045212       0.83859804       0.59972033      -0.01207455
S       -4.14388515       9.53483526       2.53845575      -0.26692978      -0.49068131      -0.14454428
S       -0.21407987       9.47300591       2.59961297       1.68530745       0.50435986      -0.38826623
S        4.09779062       9.60802747       2.48568923      -0.00178702      -0.66781171       0.45636132
S       -0.11908222       2.28682098       9.06175131       0.69128809       0.77293905       1.87504608
S        4.13115976       2.37531956       9.23414403      -0.59329484       0.05141585       0.66222599
S        8.38437732       2.24117477       9.38882567      -0.60671044       0.77090073      -0.66044951
S       -2.08946238       5.96540358       9.21189332       0.16285820      -0.06624079       0.84371766
S        2.14361430       5.99899408       9.20943181      -0.52384854      -0.14016004       0.92310359
S        6.16226514       6.05582813       9.29121321       0.63330716      -0.59595458      -0.83134921
S       -4.08594230       9.60463120       9.29273606      -0.64835143      -0.76837121      -0.71164313
S       -0.11985664       9.55774984       9.20946826       0.84952886       0.01232421       0.16349189
S        4.15007742       9.55101894       9.17067698      -0.18730703      -0.80478240       0.21678262
S        2.17527750       1.14709428       5.94029467      -1.45170915      -0.56899859      -0.56091438
S        6.15943132       1.22660843       5.91288883       0.53924724      -0.03489372      -0.25442596
S       10.37159746       1.27747626       5.91778765      -0.13740128      -1.15215838      -0.16206247
S        0.06290196       4.70649790       6.01050936       0.21862812       0.81694875      -0.86916178
S        4.07020456       4.60484298       5.81346386       0.60681273       0.61844055       0.30245111
S        8.30756312       4.72645514       5.95521799      -0.25658603       1.71185371      -0.70809646
S       -1.95688232       8.18710094       5.95835405      -0.66970393       1.31123696      -0.74373543
S        2.11768433       8.36453467       5.99310005      -0.93758181      -0.53145876      -1.06892935
S        6.16233990       8.35346042       5.87162193       0.14618901       0.08743713      -0.22910627
S        2.04850878       0.97133721      12.67001688       0.20845971       2.79600527      -0.77573079
S        6.22942016       1.20896250      12.67296507      -0.88220082      -1.05173712      -0.73901244
S       10.37828730       1.06631008      12.51668487       0.05370934       1.15816074       1.15016243
S       -0.10929491       4.72833923      12.62964924       0.58608247       0.22192515      -0.10087359
S        4.14051091       4.89803119      12.66653332      -0.32901490      -1.00773620      -0.72904724
S        8.29834512       4.79646678      12.60256211      -1.95490955      -1.01159850      -0.65728933
S       -1.96660150       8.40470393      12.47666096      -0.78284249      -0.70726813       1.31411271
S        2.06664897       8.57456081      12.64360874       0.25211817      -1.52050334      -0.62578845
S        6.29751017       8.38584249      12.57297811      -0.66761676      -0.59832879       1.13588276
