72
Lattice="12.39778545 0.0 0.0 -6.19889272 10.73679715 0.0 0.0 0.0 13.44794642" Properties=species:S:1:pos:R:3:forces:R:3 ref_energy_eV=-269.55306459 ref_gap_eV=2.2358 energy=-242.68238883 stress="-0.0032141370515247508 0.0024729080106172525 0.0004409004605542675 0.0024729080106172525 -0.002162674217696337 -0.0004426064023115722 0.0004409004605542675 -0.0004426064023115722 0.000430567405019021" free_energy=-242.68238883 pbc="T T T"
Cd      -0.11228284       2.28797958      13.41846745       0.28901830       0.01620844       0.11021514
Cd       3.95605064       2.36313512      13.31527248       0.96634411       0.52868733       0.30066195
Cd       8.26622364       2.26059646      13.43792595      -0.43648176       0.19667072      -0.12914937
Cd      -2.11216868       5.86493658      13.34415194      -0.25430512      -0.64359797       0.54746439
Cd       1.97398792       5.91605876       0.02011033       0.41280917       0.35350581       0.40430231
Cd       6.33416912       6.01618186      13.30010871      -0.31181832      -0.15293593       0.50086095
Cd      -4.15978091       9.64384778       0.01009793       0.07941431      -0.25890990       0.13114368
Cd       0.01284002       9.38517611       0.11345104      -0.61994503       0.57150680      -0.44229505
Cd       4.13839765       9.55659273       0.12461055      -0.17464043       0.04868693       0.33895567
Cd       0.22084870       2.66383072       6.63489442       0.08733761      -0.75215186       0.40838067
Cd       4.33904824       2.48440338       6.47992553      -1.38403407       0.48326240       0.89747489
Cd       8.37333883       2.55039646       6.74632639      -0.29912607      -0.49502823      -0.11435136
Cd      -2.02663053       6.06170449       6.92439750       0.02065983      -0.06337704      -0.98538436
Cd       2.20752389       5.96677231       6.59432452      -0.54684381       0.49670720       0.28550203
Cd       6.32084807       6.04224243       6.70498336       0.15260700      -0.43543852      -0.17334470
Cd      -4.08632651       9.68511574       6.62622856      -0.30383935      -0.11983592      -0.08970153
Cd      -0.07477742       9.57950216       6.97951929      -0.13071850      -0.04372325      -0.23378325
Cd       4.22946942       9.51729090       6.90009653      -0.38702736       0.46994402      -0.54813786
Cd       2.05583246       1.40044222       3.16336864       0.99197254      -1.01494866       0.61712075
Cd       6.31641071       1.16414238       3.33298813      -0.01684617       0.05984030       0.38115765
Cd      10.31954437       1.19404576       3.67337367      -0.00816230       0.12259397      -0.37574397
Cd       0.17885424       4.71100478       3.24559180      -0.39731864       0.13538915       0.08779656
Cd       4.35933548       4.71542973       3.21871541       0.04245761       0.78122606       0.29415939
Cd       8.34741438       4.90633976       3.27112058       0.07188687      -0.81297824       0.00663778
Cd      -2.20178557       8.33961714       3.37643777       0.04633971       0.01542541      -0.30791138
Cd       1.91183119       8.35532390       3.63776055      -0.07639082      -0.14393239      -1.03964205
Cd       6.04173840       8.50047112       3.43214064       0.32527983      -0.45497004       0.05193896
Cd       1.92381160       1.15967996       9.87852564       0.48857425       0.25072769       0.19910287
Cd       6.21330447       1.06903487      10.09581514      -0.84648280       0.08229488       0.36009835
Cd      10.17313712       1.09280431      10.06885927       0.19811983       0.20599222      -0.67001628
Cd      -0.14834155       4.61264648      10.11742922       0.21096196       0.81624341       0.30153729
Cd       4.02927662       4.75740277      10.17082160       0.11399063      -0.45040432      -0.59642569
Cd       8.16825882       4.73163811       9.87245833      -0.49749806      -0.20659181       0.44460764
Cd      -2.05759145       8.35375482      10.21124183      -0.37053919       0.35546329       0.35306789
Cd       2.05165472       8.07299370      10.15399177       0.60173025       0.06188881       0.37248531
Cd       6.17071690       8.24065759      10.10843456       0.48499894       0.60564453       0.09268641
S       -0.01703958       2.27623288       2.51564561      -1.08227127       0.67341608      -0.34385842
S        4.25620921       2.39711923       2.51156066      -0.16193528      -0.37606687      -0.50473927
S        8.36699811       2.33952512       2.48897995      -0.02830273       0.43652580       0.40449595
S       -1.99689283       5.94988397       2.50893858       0.67769340       0.09809985      -0.27323792
S        2.21543473       5.99845777       2.59474576      -0.05732605       0.03530817      -0.11561650
S        6.39334703       6.11479129       2.51545331      -0.92525816      -0.01912576      -0.49676854
S       -4.28313757       9.53010849       2.51914557       0.52298280       0.59745688       0.20628913
S       -0.08005851       9.54175501       2.55528249      -0.00324837      -0.26218491       0.57039085
S        3.97462247       9.58306033       2.78325302      -0.21269076       0.17062594      -0.90680048
S       -0.13834651       2.39711838       9.19853588      -0.11641252      -0.66776954      -0.23464338
S        4.14456523       2.33990510       9.29264421      -0.19632183       0.05562919      -0.45067225
S        8.11121499       2.28603322       9.23694712       0.77359495       0.51751034      -0.19900187
S       -2.20947232       6.01698788       9.34693142       0.63704975      -0.30214587       0.21581344
S        1.98813417       5.80781553       9.16421901      -0.29601969      -0.04400301       0.13428779
S        6.06066380       5.98473572       9.18328551       0.23112896      -0.54427919       0.23019497
S       -4.11040964       9.53450950       9.11926589      -0.14772269      -0.43762381       0.72004311
S        0.10754571       9.38541619       9.49064895      -0.64229012       0.25258261      -0.45499584
S        4.12261812       9.44698163       9.34024416      -0.39635902      -0.09150569       0.32809234
S        2.13317474       1.28148871       5.77935099       0.20380530       0.33073258      -0.07342377
S        6.21337346       1.19613632       6.01936765       1.47754410      -0.59512867      -0.77171105
S       10.51461236       1.39828348       6.10627003      -0.35791100      -0.84968467       0.12861142
S        0.05798314       4.89761804       5.83251180      -0.27860101       0.85807334      -0.21901198
S        4.23540561       4.90106423       5.85914909       0.42994891      -0.41009355      -0.57406582
S        8.36623825       4.80720444       5.77365969      -0.02861892       0.45999558       0.63627463
S       -2.09440606       8.40827714       5.87962399       0.38118203      -0.22858431       0.32133095
S        1.99636549       8.49375020       6.01300059       0.39455986      -0.21509206       0.97158951
S        6.18632063       8.36138557       5.94719885       0.36005098       0.54031100      -0.20193458
S        2.01779258       1.19989646      12.51633939      -0.65524108      -0.14981993      -0.30103095
S        6.11331751       1.15117233      12.62239918       0.06504713      -0.29416793       0.31547363
S       10.29097534       1.15697579      12.49032353       0.01461541      -0.30867084       0.78156017
S       -0.00781091       4.70300694      12.71491554      -0.22065525      -0.18034078      -0.61118132
S        4.08845906       4.87627286      12.60055662       0.32535204      -0.29806166       0.67213322
S        8.23785199       4.66538703      12.46924549       0.11156688      -0.16452454       0.04530260
S       -2.17638158       8.19523847      12.82422287       0.30020294       1.21191180      -0.83405978
S        2.05554081       8.35128139      12.76763915       0.43459118      -0.35230315      -0.63341933
S        6.18543940       8.42474234      12.65457958      -0.05621582      -0.05608771      -0.26318236
