72
Lattice="12.39778545 0.0 0.0 -6.19889272 10.73679715 0.0 0.0 0.0 13.44794642" Properties=species:S:1:pos:R:3:forces:R:3 ref_energy_eV=-268.94814917 ref_gap_eV=2.2269 energy=-242.10967039 stress="0.0028016605608429564 0.0012056059456388244 0.001819245127010157 0.0012056059456388244 -0.005915249222191122 -0.0012155867928140972 0.001819245127010157 -0.0012155867928140972 -0.002606471281496308" free_energy=-242.10967039 pbc="T T T"
Cd       0.12347358       2.24242593      13.24528520      -0.70979846       0.75045088       0.57833056
Cd       4.29932772       2.37123969       0.01040105       0.02520811       0.04687929       0.02762555
Cd       8.34743049       2.24964192      13.32758407      -0.58746234       0.71318899       0.64978603
Cd      -1.90897294       5.87897064       0.04792122      -0.76217882       0.37937596       0.57649148
Cd       2.07484279       6.00631722       0.09733839      -0.12842795      -0.55396040       0.19928987
Cd       6.28819695       5.98658041       0.15132544      -0.30529906      -0.26913760      -1.35163283
Cd      -4.30374597       9.57023394       0.09796869       0.13994458      -0.54607140       0.17503136
Cd       0.06965771       9.65205016      13.38628638      -0.55356491       0.00001750       0.13475269
Cd       4.11142459       9.43311903      13.31958860      -0.00463896       0.09627933       0.27674611
Cd      -0.11230354       2.32918763       6.85773576      -0.06529163       0.21474666      -1.35899631
Cd       4.28535002       2.37494871       6.68673813      -0.36138734       0.16323059      -0.16101267
Cd       8.08652703       2.40298378       6.71227484       0.17734188      -0.35392580      -0.07749840
Cd      -2.04173221       5.89421528       6.61623095       0.03192985      -0.00780053       0.82367520
Cd       2.11465363       6.03804649       6.73277516       0.07861799      -0.94720970       0.31962334
Cd       6.19129580       5.93936738       6.82471299       0.03848490      -0.37727492      -0.34836576
Cd      -4.12473671       9.52383917       6.61988758      -0.17665598       0.11378011      -0.44843890
Cd      -0.02664098       9.20666956       6.74114906      -0.12238318       0.11624964       0.16305028
Cd       4.04091138       9.72759169       6.61345422      -0.03618889      -0.31708489       0.09056410
Cd       2.06006271       1.27424083       3.51955660      -0.27679616       0.02354580      -0.38654758
Cd       6.14331841       1.33216617       3.40700105       0.32606549       0.16029744       0.11517509
Cd      10.19738861       1.21934423       3.20462694       0.61975310       0.59529917       0.37640990
Cd      -0.07035291       4.76544635       3.40872467      -0.27573884       0.27606070       0.03238717
Cd       4.16170369       4.80109187       3.28015854       0.10918568       1.31094027       0.17110757
Cd       8.31260543       4.95322188       3.40860754      -0.61431228      -0.08268447      -0.07421537
Cd      -1.88884935       8.59524654       3.31394072      -0.32378860       0.12566881      -0.10903476
Cd       2.22899983       8.45326915       3.23696427      -0.03445665       0.01053881       0.07399792
Cd       6.20408393       8.30474489       3.45063587       0.17644332       0.95063229       0.72377172
Cd       2.10246865       1.16470349      10.16033960      -0.28626536      -0.14131175      -0.28374888
Cd       6.12491241       1.11520277       9.84426983       0.39101423      -0.13734327      -0.15490369
Cd      10.21931435       1.07302359       9.91062374       0.20074747       0.54088356       0.64536440
Cd      -0.07411489       4.71724200      10.23550138      -0.10911382      -0.09201869      -2.25003198
Cd       4.16397725       4.74812865      10.24968426      -0.50859552      -0.06887861      -0.44005840
Cd       8.22015725       4.89072727      10.14528153       0.01188106      -0.42616655       0.40175667
Cd      -2.12868593       8.34152797      10.42426147      -0.05547343       0.04658497      -0.79226734
Cd       2.11153522       8.20299688      10.08155736      -0.37718315       0.57934120       0.30552268
Cd       6.14798116       8.35662584       9.96812097       0.10903651       0.63562212       0.04287324
S       -0.02341898       2.47264584       2.40532874       0.11794241      -0.29455052       0.15130730
S        4.14283401       2.59844159       2.52344663      -0.15040180      -1.89232283      -0.28502350
S        8.27651268       2.58913128       2.62686645      -0.71994622      -0.36438262      -0.78673060
S       -2.20153185       6.24608740       2.65958033       1.26532221      -0.78279629      -0.80028566
S        2.05003712       6.00125943       2.63177925      -0.23166258       0.18106276      -0.32423551
S        6.16584990       6.16362740       2.47410275       0.01572313      -1.30975167       1.17870326
S       -4.15562573       9.54164324       2.60299419       0.17615559       0.67423287       0.31919114
S        0.12495109       9.72385958       2.48766622       0.27159716       0.04307680      -0.11022237
S        4.34130892       9.67695019       2.49511194      -0.61982306      -0.68167708      -0.50217369
S       -0.11223473       2.31626933       9.18552647       0.51533103       0.13789661       2.01654964
S        4.10209451       2.41602298       9.20297155      -0.12875097       0.09808721       0.25172101
S        8.27831489       2.41311642       9.21421404      -0.66929585       0.36071597       0.22728057
S       -2.10109045       5.98498224       9.38737369       0.09169573       0.21434728      -0.62582286
S        2.01459154       5.94213801       9.34022869       0.24584292      -1.10582358      -0.61700508
S        6.09403381       5.99152460       9.32836801       0.33801700      -0.41768892      -0.16868393
S       -4.16067293       9.54509953       9.07441134       0.20449265      -0.05978267       1.34631793
S        0.00133432       9.36575056       9.27455000      -0.39276145       0.26335936       0.09450258
S        3.97918609       9.52247366       9.18867154       0.60514892      -0.52399730      -0.25350510
S        2.02702075       1.32310335       6.04463231       0.31700686      -0.59171296      -0.49300210
S        6.17133090       0.90950582       5.95788862       0.06400965       0.48600057      -0.26493114
S       10.23120078       1.32155951       5.80117499       0.03586846      -0.14783039      -0.06262468
S        0.01195891       4.72777984       5.98331142       0.42070820      -0.00957280      -0.28608766
S        4.17435680       4.75212016       5.74331426       0.03823197       0.00567976       0.98771118
S        8.31979521       4.72912957       5.89552135      -0.88366979       0.26642127       0.24612501
S       -2.12543660       8.20523979       5.77290808      -0.02796321       0.63505942       0.33795008
S        2.09406066       8.26058519       5.80343142       0.08622680       0.76172989      -0.21330097
S        6.05582625       8.28121842       6.00773464       0.40117905       0.56079992      -0.32913070
S        2.19573223       1.12971313      12.76731290       0.35219850       0.15735342      -0.99577818
S        6.24693321       1.20453411      12.37512869      -0.03250671       0.03916737       0.52231322
S       10.33832961       1.13718111      12.59415580       0.60879657      -0.41165622      -0.57958995
S        0.01297360       4.79904737      12.51308580       0.67729718      -0.62623056       2.21065975
S        4.08923968       4.75381636      12.69131896       0.39686166       0.21859236       0.41839339
S        8.29193621       4.76014914      12.83365337       0.18774507      -0.23321865      -0.80297694
S       -2.12765847       8.36444384      12.88484164       0.18734371       0.11412741      -0.07276027
S        1.95456444       8.26919492      12.62851961       0.58492855       0.40771103      -0.17803598
S        6.20056426       8.26461901      12.54575409      -0.10954221       0.29882825      -0.22339923
