72
Lattice="12.39778545 0.0 0.0 -6.19889272 10.73679715 0.0 0.0 0.0 13.44794642" Properties=species:S:1:pos:R:3:forces:R:3 ref_energy_eV=-269.8697421 ref_gap_eV=2.2342 energy=-242.96174638 stress="0.0010877759588888392 0.0008898217471730068 -0.00041503365569519615 0.0008898217471730068 -0.0031055945114936982 7.816630100211235e-05 -0.00041503365569519615 7.816630100211235e-05 0.0016175397558266507" free_energy=-242.96174638 pbc="T T T"
Cd      -0.07805267       2.47586688      13.44479422       0.19155966      -0.73369622      -0.13158491
Cd       4.34496657       2.39023824      13.40622027      -0.60983595       0.19372516       0.29185825
Cd       8.39503811       2.43957543      13.41897174      -0.06808775       0.19073264      -0.63900725
Cd      -2.01927480       6.05523535       0.08734401      -0.13047627       0.31308815      -0.18967925
Cd       2.22618609       5.98919772       0.09399187      -0.97421005       0.15383591       0.36008421
Cd       6.24677025       6.08882048       0.08401470      -0.15832695      -0.16852183       0.06003264
Cd      -3.99654608       9.68136172      13.25002694      -0.41217447       0.10827250      -0.13511542
Cd       0.06774987       9.55284033       0.23604508       0.51068244      -0.09066030      -0.29989872
Cd       4.08238049       9.44737417       0.02441972       0.23096228      -0.41817450      -0.06138158
Cd      -0.27702802       2.24323645       6.90476525       0.47164577       0.06552527      -0.57813233
Cd       4.01831499       2.42670394       6.65616127      -0.19150799      -0.14054292       0.29401369
Cd       8.24670754       2.44780068       6.95451378      -0.08770398      -0.82072199      -0.16476462
Cd      -2.00715466       5.81320443       6.67877883      -0.47064457       0.42764516       0.57304095
Cd       1.99913950       5.81110990       6.55710006       0.53125310       0.60167284       0.34429813
Cd       6.17795863       5.93347417       6.57840524       0.16721366      -0.60339544       0.02160180
Cd      -4.10828515       9.45696213       6.75823669       0.05935140       0.20921047       0.24276259
Cd      -0.01284516       9.65242949       6.85338038       0.00208950      -0.27285881      -0.32112751
Cd       4.25599046       9.40799986       6.63887380      -0.44847187      -0.06794418      -0.16004718
Cd       2.02938594       1.28323215       3.36819377      -0.19723779      -0.18429981       0.14385807
Cd       6.29267230       1.22291003       3.47005134       0.27801742       0.12319541      -0.00724966
Cd      10.29191367       1.16884048       3.26680903       0.83874129      -0.61034568       0.43376497
Cd      -0.33618641       4.85818340       3.33954508       0.42499262      -0.32060516       0.23769511
Cd       3.86380065       4.65646614       3.23113688       0.28496135      -0.33889256      -0.47360275
Cd       8.21185904       4.75827321       3.24766884      -0.14991042      -0.15307379       0.38119252
Cd      -2.05489878       8.52139316       3.50058988       0.05934621       0.79458289      -0.22281233
Cd       2.25186817       8.24731032       3.43891451      -0.72039189       0.13864367       0.38999048
Cd       6.39484159       8.25489136       3.17365457       0.18043310       0.53968950       0.20902488
Cd       1.92199837       1.23636227       9.98817132       0.25701936       0.02441754       0.30717676
Cd       6.13329964       1.40146361      10.23266131      -0.07725526       0.24466204      -0.46370660
Cd      10.29356202       0.92599915       9.99270597       0.20563285       0.46484659       0.64811286
Cd      -0.02531156       4.85977244      10.23922552      -0.10876243       0.29406080      -0.32175024
Cd       4.12144312       4.90338821      10.09399846      -0.26790523      -0.31630728       0.45170565
Cd       8.30287298       4.77526558      10.06335879       0.58043255       0.55185150       0.56388864
Cd      -2.00187593       8.55011130      10.06184536       0.24575932      -0.31720737       0.14589343
Cd       2.04845677       8.31472914       9.91758117      -0.28848043       0.57155810       0.42416531
Cd       6.24772426       8.00305420      10.03485210      -0.18303765       0.56411233      -0.27893102
S       -0.01665853       2.46902872       2.50979441      -0.29675143      -0.04071409       0.23150141
S        4.18771033       2.20941253       2.56404517       0.02890894       0.68370965      -0.44726136
S        8.41241745       2.38083291       2.41642895      -1.03229512       0.34632779       0.52937845
S       -2.25364061       6.24096960       2.66961115       0.00462207      -0.75285569      -0.77400411
S        1.86500160       5.96406534       2.64177430      -0.11875014      -0.31973426      -0.52743711
S        6.04287236       5.87640358       2.60676863       0.26944327      -0.16276737      -0.30186248
S       -4.02593906       9.70838356       2.33450903      -0.35483702      -0.57237997       0.59706917
S        0.15296084       9.57491883       2.70772155      -0.09953281      -0.21026961      -0.02518808
S        4.17701669       9.36310652       2.56919305       0.72727713       0.87535041      -0.36482845
S       -0.16469367       2.49325716       9.35113713       0.04651083      -0.34413951       0.13103933
S        4.04451207       2.50063033       9.26209747       0.03724748      -0.21494263      -0.12517339
S        8.36345972       2.44647618       9.45736447      -0.30509262      -0.81025166      -0.33884382
S       -2.08724900       6.10412772       9.32478910       0.30442076      -0.14038668      -0.36787341
S        2.05441788       6.00143595       9.23139123      -0.28670869      -0.70211128      -0.52414572
S        6.25318176       5.71896875       9.13146116      -0.36779338       0.34285943      -0.37044492
S       -4.17486139       9.49143583       9.40275747      -0.31669674       0.38215140      -0.75206906
S        0.03606504       9.81383480       9.33996444       0.19376140      -0.61053576      -0.10177490
S        4.15189146       9.39720401       9.13430741       0.51646871      -0.36317262       0.22646131
S        1.93205694       1.16131549       5.90381335      -0.06153764      -0.07584169       0.30710977
S        6.12320710       1.25942223       5.98300858       0.46045515       0.08177082       0.00407987
S       10.21056430       1.03688664       5.86881951      -0.21171745       0.37958234      -0.08410728
S       -0.03124025       4.63519870       5.90937515      -0.06201840      -0.51962696      -0.39247663
S        4.14733050       4.71544906       5.64940147      -0.22187736       0.28295523       1.09715019
S        8.30069587       4.61386693       5.87503636      -0.12230132       0.78101971      -0.37761904
S       -2.01713060       8.26411040       5.95331605       0.00986813       0.28416477       0.45261056
S        2.01157677       8.35844219       5.93321594       0.12049222      -0.37280547       0.31814438
S        6.27318950       8.23904009       5.80973595       0.25120556       0.40331170      -0.34483037
S        2.13132344       1.39380881      12.57613138      -0.20925252      -0.17412483      -0.08693014
S        6.32307087       1.16224981      12.66937084       0.27108211       0.05241882       0.27528131
S       10.34643963       1.03084730      12.65187345       0.20871333       0.60183743      -0.46298744
S        0.03933718       4.80588639      12.72469085      -0.08551071       0.56735589       0.09476533
S        4.14869537       4.85701094      12.73597408       0.92309121      -0.65622474      -0.68453185
S        8.26206753       4.91118613      12.63414488       0.40959605      -0.43513109       0.09696274
S       -1.89604862       8.52880552      12.61190225      -0.23391726      -0.78598743       0.00130430
S        2.09328574       8.23385647      12.51791980      -0.33036963       0.62510380       0.19746990
S        6.27055466       8.32596380      12.46460245      -0.04187705       0.55600353       0.81869199
