72
Lattice="12.39778545 0.0 0.0 -6.19889272 10.73679715 0.0 0.0 0.0 13.44794642" Properties=species:S:1:pos:R:3:forces:R:3 ref_energy_eV=-267.15569564 ref_gap_eV=2.205 energy=-240.44409131 stress="-0.009607078427042793 0.0037447695978762843 -0.00155604747169208 0.0037447695978762843 -0.003006963450505494 0.0015765359494128502 -0.00155604747169208 0.0015765359494128502 -0.006417478901212538" free_energy=-240.44409131 pbc="T T T"
Cd       0.08120289       2.39423447       0.02701464      -0.97300746       0.48261457      -0.17913986
Cd       4.00846836       2.39589202      13.34705724       0.67960557       0.30671671       0.06614896
Cd       8.27015671       2.39646998      13.43403479       0.92140319       0.52506789       0.45903323
Cd      -2.02577545       5.81788492       0.12798559       0.93797201       0.62789165      -0.94712672
Cd       2.03356579       6.17984523       0.03872901      -0.32629480      -1.74228674       0.84105253
Cd       6.20208274       5.96476871       0.00115061       0.25357053       0.04073669      -0.02357089
Cd      -4.03156251       9.60663748       0.08942212      -0.43849297      -0.35148760      -0.78574707
Cd       0.00339284       9.54864181       0.00388081       0.16515751       0.35638829       0.14627248
Cd       4.11608393       9.63740678      13.44663242       0.10222559      -0.14080226      -0.07702730
Cd      -0.01354396       2.38636290       6.82560015      -0.15513446      -0.33441693       0.01555376
Cd       4.13811479       2.40778957       6.77649524      -0.04457729      -0.57779867       0.53942704
Cd       8.38460470       2.42048959       6.52817985      -0.47341543      -0.25930038       0.72103109
Cd      -1.88145327       5.81033878       6.76868306      -1.47465060       0.73880708       0.14221613
Cd       2.14812604       5.88637184       6.71804468       0.36356752       0.30645623       0.00767688
Cd       6.10184076       5.90331504       6.78183381       0.59537382       0.19395730      -0.27224658
Cd      -4.01564053       9.53141054       6.78338704      -0.81733455       0.35859114       0.01933449
Cd      -0.08518685       9.44872754       6.69734022      -0.15816586       0.04875816       0.40898084
Cd       4.23888009       9.36583678       6.66189816      -1.03790615       1.08723398       0.97457975
Cd       2.06372867       1.20795582       3.34986086       0.11006701      -0.19034951      -0.31679104
Cd       6.21017651       1.32723036       3.44990350       0.33861234      -0.30310707       0.56890906
Cd      10.35401920       1.19424793       3.15823368      -1.09690548      -0.64762374       1.36529639
Cd      -0.02469744       4.74249537       3.53685119      -0.16048303      -0.24330315      -1.20922797
Cd       3.99037856       4.83506460       3.29381238       2.50259802      -1.37438872       0.00852539
Cd       8.07226307       4.83768835       3.49033932       2.78236241      -1.71254664       0.15863403
Cd      -2.07646311       8.37670730       3.39548665       0.45461833      -0.36271849      -0.67118448
Cd       2.14704148       8.38806018       3.45071078      -0.57336046       0.11127723      -0.31457708
Cd       6.18233908       8.47119208       3.31943098      -0.28596729      -0.82974846       0.52210719
Cd       2.13480797       1.22504440      10.23696250      -0.38786083       0.01241859      -0.43389730
Cd       6.37860420       1.25582518      10.24662028      -0.08726257       0.03759812      -1.37439734
Cd      10.32416217       1.31563569      10.11482637       1.39352890      -0.89364393      -0.09092977
Cd      -0.11012153       4.85555986      10.11014016       0.78198911      -0.11714131       0.03367658
Cd       4.13934725       4.77163633      10.09109236      -0.27274057      -0.15091910       0.37883447
Cd       8.28393679       4.79322148      10.05872033      -0.44971294       0.10246069       0.32038063
Cd      -2.11302642       8.30599733      10.10758479       0.01411913       0.84433721      -0.12071705
Cd       2.05896303       8.31402824      10.12798317       0.08446022       0.39383318      -0.36933433
Cd       6.20768654       8.31514637      10.10325576      -0.38135849       0.59536494       0.43921658
S       -0.15180003       2.27748866       2.46406319       2.21473688       1.26985396       0.30039820
S        4.25006326       2.30133326       2.41889248      -1.14725179       0.68091463       0.25827020
S        8.30531075       2.32338310       2.55370733      -0.41396016       0.84711938      -0.09862694
S       -1.95884570       5.92800549       2.45591817      -0.27326683       0.15023853       1.82487236
S        2.10281362       5.91209549       2.72787370      -1.99860852       1.32241717      -1.22488558
S        6.41872016       5.94235243       2.56834220      -3.31591365       1.65481011      -1.39836084
S       -4.14939974       9.35180712       2.48396978       0.37486856       1.19366071       0.53634623
S       -0.04736499       9.69699482       2.63318618       0.45137954      -0.81553132      -0.42549246
S        4.13866166       9.56586084       2.50392626      -0.25132678      -0.43763795       0.04052477
S        0.18484150       2.52831806       9.33548533      -0.72993061      -0.50226411      -0.22443040
S        4.15992113       2.30367828       9.48130935       0.64749178       0.67262889      -0.95337320
S        8.41725798       2.42868800       9.36518014      -1.16604878       0.56807808      -1.29907710
S       -2.07157876       5.96139607       9.25709779      -0.36816948       0.52296789      -0.36048494
S        2.06089745       5.98469427       9.26123236      -0.04460914      -0.27271242      -0.21959988
S        6.11777383       6.04852325       9.23432154       0.55319818      -0.87145667       0.33423663
S       -4.31520357       9.70999880       9.27280391       0.92668216      -0.77984038      -0.08832089
S        0.03987401       9.67491739       9.36600854      -0.44821511      -0.87064745      -0.51516811
S        4.13455793       9.53237438       9.31110636      -0.08356940       0.36414219      -0.29509899
S        2.03997557       1.23073018       5.87143123       0.19327526      -0.22303208       0.13884889
S        6.21799015       1.14603499       6.06627302      -0.05772931       0.23126773      -0.45110739
S       10.33438290       1.13747444       5.92540618       0.69675929      -0.28875883      -0.47118478
S        0.02665406       4.77876342       5.92328046       1.05453757      -0.72000794       0.31424096
S        4.27943820       4.64418658       5.77134758      -0.83156295       0.34343987       0.32906407
S        8.27813518       4.77936532       5.87136009       0.20878992       0.34545488       1.05341751
S       -2.22832861       8.20733121       5.81612709       0.88696917      -0.11989105       0.80655049
S        2.05352524       8.38383009       5.92436585      -0.08026571      -0.58175351       0.25213132
S        6.15510611       8.27669243       5.92217289       1.43272618      -0.29851743      -0.68844052
S        1.97390399       1.21974912      12.65381829       0.69581093      -0.72501284       0.25784296
S        6.30836641       1.40574158      12.57169491      -1.31770701      -1.00616387       1.42073794
S       10.36930777       1.19915293      12.59688708       0.01965471       0.44432641       0.34894639
S        0.08469337       4.74571051      12.56236795      -0.00572510       0.34994640       0.68281491
S        4.01638063       4.86521192      12.71894064       0.58508194      -0.29260149      -0.33626055
S        8.45577505       4.82395835      12.63524856      -1.57286600      -0.35978136      -0.57597467
S       -2.05620544       8.35431024      12.63131759       0.12583980      -0.19280154       0.05093501
S        2.16502633       8.30973975      12.63479402      -0.65613703       1.77469006      -0.21038330
S        6.12328161       8.41431347      12.66449932       0.80846149      -0.31647159      -0.06488098
