72
Lattice="12.39778545 0.0 0.0 -6.19889272 10.73679715 0.0 0.0 0.0 13.44794642" Properties=species:S:1:pos:R:3:forces:R:3 ref_energy_eV=-269.16089389 ref_gap_eV=2.2131 energy=-242.31723314 stress="0.0002741666145275961 -0.0017928399108493595 -0.0011571655059317168 -0.0017928399108493595 -0.0021284693183809067 0.0006368094233521848 -0.0011571655059317168 0.0006368094233521848 -0.0005220185647087929" free_energy=-242.31723314 pbc="T T T"
Cd      -0.14740558       2.39161104      13.23083296       0.28104409       0.37709778       0.34896123
Cd       4.07300881       2.16304578       0.15180876       0.51527285       0.16626101      -0.84876042
Cd       8.39404400       2.51504685       0.04743508      -0.45649439      -0.03873798      -0.48035440
Cd      -2.12236530       6.06608371       0.12444743       0.45709540       0.31012374      -0.38107239
Cd       2.18678134       5.61937969       0.03607627      -0.49288892       0.63044382       0.01829133
Cd       6.12264405       6.15271785      13.28887295      -0.12802644      -1.25685752       0.95804993
Cd      -4.05728556       9.57737155       0.03421279       0.01487116      -0.26619838      -0.00201323
Cd       0.28215110       9.57450654      13.34992367       0.22716297      -0.63775326      -0.16771909
Cd       4.13368184       9.49786084       0.00315327      -0.04997918       0.19871468      -0.06230263
Cd       0.06232689       2.52980522       6.90751051      -0.22597952      -0.09887787      -0.65308723
Cd       3.93931649       2.47742511       6.83394984      -0.05824777      -0.35112844      -0.18582132
Cd       8.18352607       2.46268596       6.63724727       1.03476055       0.18911374       0.71151379
Cd      -1.84769980       5.89257771       6.73967853       0.06612181       0.07837053       0.46903247
Cd       2.36074186       6.28762012       6.69715034      -0.02910946      -0.95679314       0.14121616
Cd       6.31983777       5.83204365       6.81543955       0.30241582      -0.41802733      -0.03089126
Cd      -4.21205425       9.52378022       6.73239821       0.15469884      -0.21766732      -0.19357950
Cd      -0.06768967       9.65252881       6.64743073      -0.07112917      -0.07390752       0.13071615
Cd       4.07259603       9.63514228       6.67422361       0.49855750      -0.01496316      -0.08455332
Cd       1.70928070       1.14354126       3.31747579       0.18576793      -0.19887903       0.13439231
Cd       6.32585398       1.27788136       3.37458800      -0.32487131      -0.13474098       0.01595909
Cd      10.34621746       1.04016276       3.22951895       0.39980641       1.17484122       0.60622552
Cd      -0.11573456       4.96531258       3.45539429       0.62137730      -0.40456439      -0.52953706
Cd       4.19311131       4.54525408       3.26038508      -0.30732096       0.01397266      -0.03799706
Cd       8.38496169       4.77165587       3.31159123      -0.45544516       0.44732792       0.61527472
Cd      -2.08376572       8.56373189       3.36847900       0.04141631      -0.04557782      -0.10182760
Cd       2.05449970       8.37912394       3.16719350       0.12594227      -0.38523498       0.20316153
Cd       6.10830354       8.08766650       3.47589219       0.50068695       0.37235874       0.40876514
Cd       1.90851949       1.04668429      10.12243481      -0.37254991      -0.59113226       0.17664754
Cd       6.04038791       1.33594724      10.13843693       0.32414288      -0.18129587      -0.19641181
Cd      10.23354477       1.11250709       9.95803824      -0.65625203      -0.44090138       0.00248182
Cd       0.08677787       4.66965029      10.07781950      -0.74069480      -0.01137885       0.16694721
Cd       4.05733535       4.76768272      10.13077308      -0.11048856      -0.03698734      -0.48421614
Cd       8.31753100       4.75342973      10.30178994       0.25717029       0.59187954      -0.75533857
Cd      -2.00564374       8.27256531      10.17995155      -0.17762522       0.28743219       0.22020004
Cd       1.97016457       8.51083427      10.00463094       0.62700319      -0.43201371       0.13931065
Cd       6.23102692       8.22137945      10.11601113       0.00482688       0.42303253      -0.05892480
S       -0.03979813       2.57304788       2.37273939      -0.64925376      -0.12364118       0.12687060
S        3.94529699       2.10251902       2.56344513       0.75776834       0.36238502       0.59313772
S        8.39710873       2.51073108       2.50459274      -0.30500926      -1.09863703       0.22524448
S       -2.11761248       6.10066908       2.61269836       0.40477501       0.49155437      -0.30457060
S        2.15099737       5.94800900       2.50017334      -0.17214326      -0.24253565       0.34154985
S        6.22526121       5.83659100       2.58838085      -0.05693499      -0.29269944      -0.89673197
S       -4.26768466       9.47860182       2.49617836      -0.11853492      -0.02505832       0.64536025
S        0.07510740       9.58272588       2.39541922      -0.41304502       0.46083269       0.58329834
S        4.23049305       9.46860887       2.61949240      -0.13513154      -0.25865860      -0.85190527
S       -0.15271536       2.27340739       9.36635550       0.86406009       0.56404537      -0.27145176
S        3.83108927       2.26030216       9.32065346       0.98795799       0.87404380      -0.14104948
S        8.25440303       2.50388981       9.41778757      -0.62532865      -0.73585913      -1.02111130
S       -1.99618293       5.97824887       9.32605711      -0.18909518      -0.59491342      -0.27097708
S        1.95058890       5.95258481       9.26775179       1.14820492       0.63521176      -0.62528985
S        6.22843746       5.91020882       9.34022614      -0.21417345      -0.73198872      -0.07716598
S       -4.12154688       9.39959660       9.25099148       0.09376535       0.22657950       0.16599959
S       -0.08560993       9.59974499       9.26736839       0.04700163       0.52865511      -0.44132966
S        4.26226287       9.48332279       9.16623526      -0.71862763      -0.09887821       0.32027514
S        1.95513957       1.18016920       5.85586887       0.09858795      -0.09746161       0.19430160
S        6.14979700       1.41883811       5.98768819      -0.69262512      -0.98317952      -0.61419399
S       10.35926582       1.26759508       5.90699527       0.05507583       0.27058365      -0.27767734
S        0.26729619       4.90330597       5.86871502       0.13548311      -0.37420912       0.65689261
S        4.32507625       4.66908274       5.78658303      -0.57507001       0.68325097       0.45018741
S        8.50912731       4.80953433       5.86412214      -0.65002983      -0.04121700       0.07230909
S       -2.06281136       8.22430910       5.86132308      -0.02806536       1.00125004       0.15672108
S        2.07865425       8.51095538       5.72936430      -0.39227541       0.16673898       0.10019716
S        6.14064415       8.14327452       6.03850852      -0.02217551       0.94722951      -0.47932724
S        1.97872605       1.13491199      12.64465311      -0.01286132       0.48636703      -0.22066202
S        6.35405182       1.14950630      12.62876046      -0.45765639       0.95138731       0.14474909
S       10.23212789       1.21463239      12.45242130       0.10742354      -0.68210542       0.65795998
S       -0.01575430       4.88209500      12.58084906      -0.31072555      -0.36511541       0.26409662
S        4.21646687       4.65722620      12.59690860       0.43403517      -0.65310264       0.30797614
S        8.23473103       4.92040732      12.69945793       0.14055685      -0.18663492       0.66780684
S       -1.93183129       8.53567503      12.73029905      -0.13243234      -0.70926964      -0.30418034
S        2.23331457       8.10481509      12.52481093      -0.19593023       0.43810569       0.21621627
S        6.28235481       8.38426515      12.63201043      -0.19060965       1.13959262      -0.30626481
