72
Lattice="12.39778545 0.0 0.0 -6.19889272 10.73679715 0.0 0.0 0.0 13.44794642" Properties=species:S:1:pos:R:3:forces:R:3 ref_energy_eV=-267.02356155 ref_gap_eV=2.1709 energy=-240.29641857 stress="-0.006396836682638979 -0.00296721751415036 -0.002311241602159322 -0.00296721751415036 -0.00605892422469182 -0.0013809026366239684 -0.002311241602159322 -0.0013809026366239684 -0.00842639133834002" free_energy=-240.29641857 pbc="T T T"
Cd       0.06600042       2.18846129      13.42569343       0.74958502       1.03630213      -0.31642534
Cd       4.13572636       2.39251862      13.44758870       0.29036091      -0.57332587       0.00069184
Cd       8.26089060       2.39330069      13.44126171       0.12693166      -0.18261523      -0.24544916
Cd      -2.09053584       6.07500276       0.02768556       0.49424843      -0.97749311      -0.03548905
Cd       1.98112099       5.78072680       0.00687271       2.26469515       1.88730627       1.21254841
Cd       6.13493819       5.95767147       0.09037504       0.60342699      -0.28590059      -1.62487977
Cd      -4.13315933       9.54086182      13.41576804       0.24505871       0.29830058      -0.02770340
Cd       0.00009559       9.54295764       0.00222577       0.41817067      -0.13012584      -0.08362499
Cd       4.26911742       9.49397272       0.07528429      -0.55303100       0.16253255      -0.34370652
Cd       0.18747541       2.36241350       6.85803955      -0.18547513       0.12140835      -0.68335128
Cd       4.03616420       2.41231492       6.76702278       0.47512315       0.15564333      -0.07668195
Cd       8.27038793       2.37452934       6.78446517       1.01746107      -0.59594190       0.60474551
Cd      -2.05577307       5.96859960       6.73474475      -0.05956927      -0.31109879       0.39340477
Cd       2.00454617       5.94571476       6.70399440       0.39311432       0.47780898      -0.33037574
Cd       6.27052614       5.85129268       6.65954800      -0.44785833       0.55418291       0.68331068
Cd      -4.09170175       9.36177655       6.77630213      -0.28180150       1.02353085       0.28379218
Cd      -0.01906891       9.60776345       6.66338766       0.18834469      -0.33034715      -0.10404433
Cd       4.15655892       9.59429800       6.73632300      -0.24838598      -0.77003202       0.09299832
Cd       1.98092114       1.18707897       3.30230650       0.21487189       0.27227905       0.10537762
Cd       6.31557399       1.23531640       3.48696120      -0.77616321      -0.40615477      -0.73626783
Cd      10.30211736       1.19696263       3.34465973       0.01326764       0.87025578       0.36290854
Cd       0.00161680       4.77391951       3.36428795      -0.32957972      -0.21294023      -0.22469232
Cd       4.31249398       4.90430320       3.36502463      -1.27012179      -0.77198129       0.38133283
Cd       8.26596899       4.75293240       3.39746498       0.51867826       0.20232926       0.34428317
Cd      -2.07030960       8.34704110       3.35724405       0.54901970      -0.23331586      -0.23325546
Cd       2.22781733       8.38274278       3.31253945      -1.06040103      -0.42852608      -0.50174804
Cd       6.16028559       8.41928622       3.37586865       0.61463100      -0.36272848       0.19499780
Cd       2.07092478       1.18435494      10.09364142      -0.23617479       0.71588242      -1.61339593
Cd       6.20200339       0.99712968      10.20438781      -0.04546166       0.32005210      -2.67262341
Cd      10.26215124       1.26520786      10.08352560       0.72124864      -0.42730655       0.47071708
Cd      -0.03549120       4.82391057      10.04061805       1.69043973       0.43309898       1.09307037
Cd       4.13721422       4.79327742      10.07212242      -0.58036775      -0.28357643       0.50332758
Cd       8.17910353       4.69307884      10.09147320       0.54697933       1.63431180       0.82534329
Cd      -2.06451865       8.28598190      10.07367512      -0.13197952       0.62293143      -0.03134326
Cd       2.05581318       8.35501972      10.08046001       1.00064318      -0.45320843       0.74272970
Cd       6.15775272       8.34488709      10.14727236      -0.30443812      -0.46175697      -0.55570691
S       -0.03619031       2.37077704       2.38774098      -0.06053280       0.18236258       1.14724305
S        4.05867040       2.40268165       2.48569367       0.57505719      -0.06338227       0.51378982
S        8.20536173       2.48000430       2.49000401       0.46891080      -0.75947253       0.15991350
S       -2.10835747       5.98716256       2.52618060       0.18035809      -0.32033358       0.26886667
S        2.03802025       5.96106183       2.69905408       0.77959007       0.00062678      -0.79548368
S        6.29228109       5.79275728       2.39697004       0.23846186       1.39112941       1.56244327
S       -4.00495730       9.54294476       2.54260457      -1.24794152       0.07058988      -0.48886848
S        0.00726213       9.44420209       2.48937222       0.30938021       0.72362799       0.40980085
S        4.12858412       9.63191877       2.59426325       0.75507762      -0.37057276      -0.59778126
S       -0.04000871       2.59876691       9.25600407       0.21386900      -1.65785472       0.37607767
S        4.13323713       2.38617060       9.25667041       0.30435877      -0.30307277       0.18860389
S        8.33441257       2.53619694       9.38229723      -0.69161426      -2.34826922      -1.19866429
S       -1.99139583       5.91672026       9.47180878      -1.66715217       0.65495848      -1.39524543
S        2.13863709       6.08068285       9.17027193      -0.23059849      -0.85084763       0.41264758
S        6.19566391       5.78095646       9.29050222       0.07507581       1.47800159      -0.49767739
S       -4.29210253       9.63651766       9.28875950       0.82677734      -0.89950158      -0.28163932
S        0.15352104       9.39197251       9.23627593      -1.92009423       0.99960661      -0.82267166
S        4.07519975       9.53898750       9.27977130       0.56853499       0.46152070      -0.07004122
S        2.14482693       1.17606624       5.84364737      -0.32057365      -0.58912805       0.06149071
S        6.27619106       1.30821582       5.94378092      -0.81846083      -0.61129800       0.15469146
S       10.52712929       1.13129068       5.93666144      -0.59869093       0.95974331      -0.34574324
S        0.00755937       4.78053026       5.86557048      -0.39410312      -0.38628377       0.25583319
S        4.17092547       4.80393766       5.96110469      -0.38628834      -0.14568633      -0.54134520
S        8.21235191       4.63696103       5.95318103       1.11207633       0.71608018      -0.54436940
S       -2.16744315       8.30661599       5.81282549       1.07819519      -0.06799867       0.59091849
S        2.07699833       8.36652882       5.70392240      -0.07185077       0.14340117       1.57469613
S        6.26104555       8.29966423       5.99088732      -0.63238799      -0.25998783      -0.66009611
S        2.11600127       1.28172416      12.39488010       0.25293298      -0.74840989       2.17630943
S        6.27226487       1.12253826      12.44505788      -0.21169616       0.46373316       2.88851334
S       10.44011333       1.20182328      12.78454093      -1.26632874      -0.70827995      -1.06685025
S        0.18833575       4.72449632      12.71443961      -3.01114397      -1.19213919      -1.27967041
S        4.16325775       4.72046175      12.75174812      -0.10201577       0.49057336      -0.98347590
S        8.41708107       4.71287244      12.59013177      -0.67719809       0.44917172       0.30600446
S       -2.02547003       8.31977801      12.61750641      -0.23828525       0.79408333      -0.31620335
S        2.14645711       8.39610537      12.57441112      -0.02091807      -0.42799293       0.66134143
S        6.23427471       8.27185797      12.61091504       0.20372760       0.14152023       0.32182665
