72
Lattice="12.39778545 0.0 0.0 -6.19889272 10.73679715 0.0 0.0 0.0 13.44794642" Properties=species:S:1:pos:R:3:forces:R:3 ref_energy_eV=-268.86361404 ref_gap_eV=2.2041 energy=-242.02699246 stress="-0.0004784533989874583 0.0004042138498292585 -0.0004967843617656664 0.0004042138498292585 -0.0023293466160656637 0.0023258968528321695 -0.0004967843617656664 0.0023258968528321695 -0.0010204831220066196" free_energy=-242.02699246 pbc="T T T"
Cd       0.19840790       2.41796419       0.05420894      -0.46825811      -0.25135452      -0.19514628
Cd       4.18664022       2.39102320      13.27528689       0.65104549       0.25858504       0.03770907
Cd       8.43740203       2.33429695       0.02950224      -0.02824051       0.17236160      -0.10022007
Cd      -2.10450864       6.02181654       0.05631314       0.31669874      -0.05553066      -0.22372039
Cd       2.04944810       6.01811384      13.43929078      -0.11088830      -0.60804748       0.07666958
Cd       5.99858933       6.04934440      13.31738259       0.77717167      -1.06624306       0.69845883
Cd      -4.18009238       9.56861386       0.12624999       0.09626648      -0.00928985      -0.60907526
Cd      -0.25584429       9.57181322       0.30822438      -0.05300820      -0.17070457      -0.66096491
Cd       4.03413946       9.49943110      13.35955065       0.09215224       0.04105244      -0.32195621
Cd      -0.18311269       2.48850334       6.85291562       0.08895404      -0.03990997      -0.61478122
Cd       4.30692533       2.45489544       6.59777392      -0.46229711      -0.30217166       0.36922685
Cd       8.33132837       2.29454084       6.74090498      -0.03675046       0.31586784      -0.54419763
Cd      -2.31300660       6.34551540       6.71675879       0.21131200      -1.21948229       0.50899444
Cd       2.02399018       5.87604057       6.60722110       0.21667373      -0.13741207      -0.07768864
Cd       6.27888981       5.92565638       6.71852491      -0.27746359       0.43746889       0.63334940
Cd      -4.26564008       9.81137564       6.74499006       0.10801480      -1.17634917      -0.65061456
Cd       0.06206369       9.58521961       6.87750801      -0.25317725       0.08315255      -0.41455575
Cd       4.17668437       9.18522968       6.87012119      -0.61789407       0.07258874      -0.07907515
Cd       2.07228581       1.10216390       3.46142086      -0.14898941       0.01631447      -0.27820675
Cd       5.96418095       1.43253483       3.31466664       1.27422953      -0.32754179       0.51407468
Cd      10.13078207       1.09341996       3.39962055       0.52366032      -0.15785838       0.33163588
Cd       0.07078900       4.53171712       3.55810043      -0.83537946      -0.36515560      -0.36764923
Cd       4.20452297       4.71404082       3.30753291      -0.34771297      -0.03716607      -0.16371190
Cd       8.29932318       4.77798081       3.26915691       0.19386994       0.99669569       0.38236591
Cd      -1.85976476       8.43910345       3.35536981       0.09331865      -0.27317502       0.08998924
Cd       2.28558103       8.19111103       3.32343215      -1.36325500      -0.70622416       0.63767632
Cd       6.18259268       8.35532519       3.35609345       0.20593706      -0.08675017      -0.23613887
Cd       2.05481752       1.11490300      10.02232292      -0.05957927       0.29006439       0.17475644
Cd       6.13844317       1.30949124      10.20618889       0.60246547      -0.46816003      -0.05597334
Cd      10.27137128       1.24606168       9.96405916       0.14198592      -0.51717325       0.41606806
Cd       0.10785441       4.84493741      10.01669711       0.11628041       0.32744279       0.05791699
Cd       4.10893257       4.71505330       9.86940162       0.83253227      -0.24515915       0.38226659
Cd       8.34927305       4.70808373      10.17142219      -0.53243258       0.15634058       0.42823858
Cd      -2.02958889       8.27775537       9.91344230       0.24957262       0.14623606       0.25093583
Cd       2.08620555       8.26160089      10.10959525      -0.58159187       0.35487124       0.56570505
Cd       6.25107048       8.48717993      10.12167339       0.81484674      -0.73364056      -0.23859575
S        0.00025577       2.21365701       2.48937478      -0.47628892      -0.07770942       0.81995002
S        4.03350736       2.30436866       2.36332973      -0.92769233       0.84950151      -0.06398409
S        8.22364133       2.47100440       2.57573601      -0.03644807      -0.73867266      -0.15759508
S       -1.88474122       5.99677929       2.59874370      -0.38659754      -0.08685426      -0.12957141
S        1.91564184       5.70386572       2.59080981       1.34238879       1.04854889      -0.54482065
S        6.16348143       5.99764661       2.46153323       0.24760360      -0.19062307      -0.10088503
S       -4.04427874       9.46214242       2.58490536      -0.20009370       0.08508963       0.13756127
S        0.18765276       9.78767072       2.73612886      -0.03033289      -0.93634272      -0.24598612
S        4.09573997       9.39665719       2.44386760       0.80512472       1.02622768      -0.16139216
S       -0.03472508       2.47151042       9.31816881       0.39139197      -0.61586945      -0.03291138
S        4.16925586       2.26340617       9.17825611      -0.53738470       0.57422335      -0.25752716
S        8.24725670       2.41097529       9.19188305      -0.32952302      -0.18153804       0.52608031
S       -2.08690775       5.91101859       9.33440492       0.48363360       0.00692024      -0.80140676
S        2.22718641       6.01493135       9.11817687      -0.95012892      -0.27307388       0.02317949
S        6.28989253       5.97238690       9.30723442      -0.13434531       0.06474923      -0.20162414
S       -4.00259682       9.52499208       9.11674816      -0.80460454       0.00964359       0.79943162
S        0.00463318       9.58542404       9.32076104       0.45432433       0.04505444       0.31430545
S        4.15686762       9.37857878       9.37696297      -0.35002775       1.10489800      -0.31168860
S        2.03902652       1.28885834       5.93153979      -0.04309840       1.27212411      -0.09431086
S        6.24810722       1.18082543       5.82403018       0.21747879      -0.05124374       0.03507886
S       10.31608749       0.87196504       6.10195835       0.17136370       0.80546853      -0.78064126
S       -0.17097401       4.92906601       5.94206052      -0.23292339      -0.66932139       0.65252665
S        4.24572757       4.79937270       5.84503426      -0.64828969       0.09219085      -0.09465148
S        8.25849331       4.82405498       5.93941127       0.70045371      -0.81456117      -0.65437435
S       -2.04743159       8.52526528       5.88565513      -0.25927051       1.04196892      -0.07646731
S        1.94133104       8.25935400       5.93302431       0.75185576       0.22845841      -0.47317449
S        6.20636835       8.31148717       5.82339477       0.48868757       0.03316849       0.40709913
S        2.16101943       1.24991608      12.59048747      -0.28581791      -0.95857411      -0.42552488
S        6.33949936       1.13620975      12.66909058      -0.28581076       0.15133828       0.20620779
S       10.48422818       1.18212845      12.56138464      -0.13323474      -0.20457005       0.01423210
S        0.06122740       4.63270003      12.51472820      -0.29235681       1.17154121       0.33076215
S        4.15012434       4.78664176      12.46820973      -0.85660875      -0.32052584      -0.08162604
S        8.22324957       4.77226035      12.75459478       0.03102960      -0.10264837      -0.29948402
S       -2.19660045       8.38818805      12.41113920       0.32806858       0.01192999       1.22436566
S        1.82438949       8.37381717      12.73573699       0.39760295       0.10872794      -0.42805701
S        6.21688309       8.25391292      12.57739832      -0.04019896       1.77581206       0.20315794
