72
Lattice="12.39778545 0.0 0.0 -6.19889272 10.73679715 0.0 0.0 0.0 13.44794642" Properties=species:S:1:pos:R:3:forces:R:3 ref_energy_eV=-265.84323663 ref_gap_eV=2.13 energy=-239.27023129 stress="-0.011025014021974675 0.003036609008544085 0.00086248556623552 0.003036609008544085 -0.00961004640818686 -0.0016250809656053623 0.00086248556623552 -0.0016250809656053623 -0.004448839951516037" free_energy=-239.27023129 pbc="T T T"
Cd       0.13141597       2.35562055       0.16750910      -0.12506468       0.17492131      -1.33615529
Cd       4.13320737       2.31962436       0.07806856      -1.02032546       1.27876424       0.44654807
Cd       8.27259635       2.37720645      13.44040132       0.16355049       0.32370188      -0.16995573
Cd      -1.87824540       5.98072069      13.30049103      -1.15010422       0.63887927       0.70943197
Cd       2.06884890       5.93567328      13.43758639       0.30641873       0.16531519      -0.65246148
Cd       6.16364111       6.06657083       0.19133429       0.23145861      -0.88664613      -1.26309661
Cd      -4.14294973       9.56085739      13.41912908       0.17603758      -0.75502126       0.91880693
Cd       0.01261587       9.58843571      13.41073326       0.11377019       0.01393482      -0.17672932
Cd       4.03073354       9.70574961      13.43155579       0.09844787      -1.69112577      -0.47480349
Cd       0.01715531       2.44647371       6.71427872       1.01408716       0.01874351       0.12686517
Cd       4.27154645       2.30960564       6.72295695      -1.89019474       0.72694033       0.21339797
Cd       8.46120925       2.37873956       6.75322155      -1.13767014       0.57241017      -0.11164971
Cd      -1.86600029       5.96057664       6.57957723      -1.72419910       0.53730842       0.49658209
Cd       2.06096161       5.98776704       6.75877071       0.04435010      -0.16683226       0.15370283
Cd       6.09082811       5.91177317       6.61496617       1.09268783       0.22693688       0.33876048
Cd      -4.25781763       9.45524392       6.68208555       0.85594784       0.91125657       0.27439259
Cd      -0.00547870       9.55203797       6.74803912      -0.48093302       0.74705373      -0.50355117
Cd       4.12511435       9.59402432       6.74859761      -0.00554283      -0.31751766       0.18672436
Cd       1.86722266       1.24509698       3.37986968       1.32442805      -0.86805291       0.24393857
Cd       6.07973315       1.19129446       3.20603023       2.29739332      -1.19764137       1.00931035
Cd      10.34361181       1.03835168       3.34135167      -0.16008417       0.75303992       0.35770343
Cd       0.04599579       4.70342685       3.36059407      -0.39723104       1.36987135       0.03446447
Cd       3.96651487       4.65622446       3.31066548       0.47539002       0.69989896       0.05067561
Cd       8.33218351       4.77080412       3.25186836      -2.19032531      -1.15598200       1.29187445
Cd      -1.97932138       8.33760604       3.49260409      -0.31965521      -0.36430594      -0.96258474
Cd       2.12522870       8.46859560       3.42369735      -0.36452221      -0.12373420      -1.25888738
Cd       6.06301653       8.25247096       3.29305095       1.27911683       1.17933107       0.92123327
Cd       2.07072772       1.06467047      10.19766760       0.00749364       0.45100564      -0.80269078
Cd       6.16073333       1.06363974       9.95012144      -0.01126983       1.45654411       0.79125435
Cd      10.27563922       1.04131117      10.08318120       0.16393914       2.07435683       0.23448140
Cd       0.00232756       4.79580862      10.07977282      -0.56762449      -0.86772564       0.24033723
Cd       4.10645909       4.87549842       9.98342528      -0.12364793      -0.35184617       0.48283777
Cd       8.26514218       4.77185880      10.08747621      -0.09734913      -0.11668288       0.17635522
Cd      -2.04542414       8.38869258       9.87538178       0.81828049      -1.93770811       1.28138937
Cd       2.07399491       8.35216116      10.08533112      -0.51542980       0.50987652       0.13496978
Cd       6.07816942       8.22510319      10.05546176       1.05443567       0.04817881       0.62329112
S        0.03604910       2.47174030       2.52545333      -1.04798865      -0.58592178       0.49756131
S        4.25994157       2.33627123       2.63081006      -3.01175630       1.15086167      -0.95477941
S        8.25768305       2.35869235       2.54904547       0.31975611      -0.41368920      -0.01564561
S       -2.25906477       5.87456072       2.57269341       3.25967924       1.65613238      -1.07578835
S        2.05970274       6.02587064       2.40410888      -0.20020181       0.10310225       1.17290089
S        6.21516166       6.07928331       2.53606941      -0.31154756      -2.15958648       0.96034376
S       -4.07976504       9.53016346       2.73461005      -0.55669681       0.15245577      -0.79138764
S       -0.07680880       9.55172778       2.44412688       0.78238727      -0.30961366       0.57153862
S        4.23427567       9.49692878       2.40497305      -0.97639155       0.35030824       0.58482219
S        0.00899676       2.35830453       9.13485905       0.09447196      -0.23700537       1.49350133
S        4.16576737       2.42412894       9.17689155      -0.52391374      -0.04513474       0.76794255
S        8.21108715       2.40816461       9.24565802       0.21998140      -0.68338390       0.39423976
S       -2.08178189       5.74340301       9.14652460       0.26697785       1.16551734      -0.08501964
S        1.90615902       6.07810216       9.36766707       1.02399958      -0.60601400      -1.07093657
S        6.22787869       5.91884550       9.20325678      -0.22338813       0.14004228      -0.29982133
S       -3.93375911       9.45992902       9.20863906      -2.57935537       0.90184216      -0.31650479
S       -0.05339639       9.55648236       9.23799404       1.04731114      -0.72077794      -0.31759521
S        4.11473660       9.53704210       9.48885163       0.05651146      -0.92364649      -1.59900315
S        1.98916777       1.18030148       5.86401469       0.60569714       0.04784406       0.38141547
S        6.15681929       1.41878067       5.80683308       2.07822110      -1.65288581      -0.47199321
S       10.46844208       1.27668163       6.05263021      -0.71391213      -1.31978766      -1.39931301
S       -0.00203540       4.74412200       5.89990134       1.29819770      -0.00984400      -0.71096349
S        4.12223403       4.82722728       5.85700952      -1.03941708      -0.56737225      -0.15521314
S        8.26899665       4.77310469       5.90600026       0.17517047       0.14736515      -0.23230213
S       -2.12939162       8.39301006       5.88259868       0.51672128      -0.15309947       0.94682198
S        1.93098063       8.33795187       5.79582379       0.76697876       0.24188049       1.14561662
S        6.21750689       8.34321569       5.91881749      -1.47515442      -0.35888168      -0.45479187
S        2.12805892       1.12253128      12.67849271      -0.32705217       0.68630185      -0.11973908
S        6.05481602       1.28398018      12.79519171       1.99921939      -0.83090586      -1.47641847
S       10.49669099       1.14084257      12.65249071      -0.39575596       1.58562608      -0.50245998
S        0.03287192       4.76872408      12.63795348       0.68774594      -0.94654065      -0.38094365
S        4.16392159       4.80646553      12.63367918       0.01870256      -0.32618889      -0.23372350
S        8.37521381       4.84606445      12.56640180      -0.49006058      -0.32859426       0.57542844
S       -2.02371723       8.43462588      12.64958891      -0.20133410      -0.48247670      -0.72538641
S        2.03155797       8.33586152      12.54101315       0.19670680       0.28250665       0.71224094
S        6.25680694       8.27951524      12.70933773      -0.57657108       0.97211719      -0.84140736
