72
Lattice="12.39778545 0.0 0.0 -6.19889272 10.73679715 0.0 0.0 0.0 13.44794642" Properties=species:S:1:pos:R:3:forces:R:3 ref_energy_eV=-269.52256721 ref_gap_eV=2.1984 energy=-242.64202426 stress="0.0008409437527101383 -0.0004212749214022235 -0.00015169788826318144 -0.0004212749214022235 -7.208171589867204e-05 -0.0008292745024182043 -0.00015169788826318144 -0.0008292745024182043 -0.0005063986763175218" free_energy=-242.64202426 pbc="T T T"
Cd      -0.11025753       2.49129845       0.13639674       0.02936870      -0.61597536      -0.03020991
Cd       4.09608072       2.19770373      13.26451952       0.59409134       0.45857794       0.00459044
Cd       8.14591528       2.37070145      13.34230110       0.85736577       0.25011142       0.79526032
Cd      -1.81096002       5.83699106      13.38514586      -1.36038759       0.58564141       0.25744263
Cd       2.20818984       5.87834544      13.13810533       0.37939134       0.00636768       0.77795328
Cd       6.46839914       5.99374250       0.18034516      -0.31095299      -0.01888710      -0.74184946
Cd      -4.28490134       9.48038133       0.13277346       0.15372012       0.13072710      -0.33172773
Cd      -0.07642627       9.47227301       0.06941359      -0.00372393       0.47870043      -0.04206865
Cd       4.13000484       9.56266954       0.07278069      -0.41337046      -0.15836982      -0.40092455
Cd      -0.26191251       2.31489749       6.80895657       0.79616743       0.18665716      -0.13414187
Cd       4.10855494       2.63296780       6.81852801      -0.05015756       0.02954815      -0.14385497
Cd       7.93062098       2.42847670       6.71983864       0.50774869       0.25146004      -0.06161432
Cd      -2.09061568       6.06871916       6.55051138      -0.20066691      -0.63887292       0.31961146
Cd       1.90494745       5.91797839       6.63321504       0.48204999       0.23546273       0.26045571
Cd       6.22485214       6.27898065       6.69591367      -0.35553625      -0.20711218      -0.07239995
Cd      -4.20698312       9.70344409       6.85817376       0.11273827       0.15322441      -0.38851736
Cd      -0.00464681       9.46065451       6.66008081      -0.16215560      -0.98223292       0.07058366
Cd       3.80565448       9.49730221       6.82833936       0.45736358       0.20925708      -0.15680496
Cd       1.74255028       1.23791470       3.43565903       0.67749760      -0.21049907      -0.06083597
Cd       6.04180609       1.26055539       3.46465549      -0.14410498       0.03203824       0.14186564
Cd      10.10182035       1.31247210       3.46754371       0.13042308      -0.32360085       0.20581821
Cd      -0.09946910       4.88501777       3.33703623       0.41475027       0.45950558       0.08321230
Cd       4.24816999       4.47808510       3.26302357      -0.33750296       0.53078631      -0.26147471
Cd       8.34099127       4.68455006       3.29591415      -0.08651618       0.37262422       0.38918985
Cd      -1.97733860       8.44758713       3.36395754      -0.50179058      -0.28336892      -0.03015120
Cd       2.05659865       8.35073478       3.10698355       0.19978837      -0.74741247       0.13622306
Cd       6.15814958       8.41550794       3.35659142      -0.35181242      -0.45895017       0.34538766
Cd       2.19476310       1.14848019      10.15485997      -0.09485147       0.15408818      -0.05050346
Cd       6.32290728       1.12235348      10.02793825       0.46959497       0.51432852       0.17163381
Cd      10.36505304       1.02171566      10.24748646      -0.30502824       0.60377232      -0.61008151
Cd       0.13682010       4.64527937       9.96062885       0.35179635       0.22982649      -0.13073176
Cd       4.37511365       4.74991783      10.08072964      -0.26028655       0.41834612       0.17987930
Cd       8.59865513       4.84029836      10.06411672      -0.34707336      -0.02130993      -0.10869066
Cd      -1.65235738       8.29814197      10.26928074      -0.64910456       0.02956940      -0.19678075
Cd       2.11535467       8.34922379      10.22947684       0.05136268      -0.24716648      -0.59654235
Cd       6.37045192       8.41430145      10.06585177       0.00454693      -0.45224635      -0.14344270
S       -0.21514404       2.52302096       2.67529896      -0.18177702      -0.57090954      -0.52728445
S        3.96978987       2.19806653       2.35009171      -0.02723117      -0.11342523       0.50559740
S        8.07646741       2.38060218       2.48456794       0.06372898      -0.16920929      -0.04896572
S       -2.12532242       6.03087990       2.42722052       0.09550440       0.21499045       0.23681883
S        2.09568781       5.78130960       2.44361370       0.06012652       0.66793192      -0.35036426
S        6.26371659       5.94382208       2.59672637      -0.33446371       0.20704160       0.38844152
S       -4.20823071       9.52462703       2.60780035       0.52634624       0.46629413       0.03801028
S        0.00057656       9.65072019       2.54723659       0.09713797      -0.12673791       0.01368410
S        4.12876562       9.64666920       2.50076667      -0.11992533       0.04067139       0.61738312
S        0.01609437       2.23095860       9.30659080       0.19174438       0.04841636       0.09270769
S        4.30395625       2.39449484       9.36924842      -0.67234687      -0.24940656      -0.44487944
S        8.33430477       2.50234114       9.18250203       0.25574593      -0.68322623       0.53669097
S       -1.80340970       6.02749587       9.15439596      -0.11374298       0.04015573       0.03195418
S        2.27713225       6.01587383       9.18952347      -0.35878966      -0.45585785       0.19150646
S        6.40131912       5.87640594       9.22169405       0.18268452       0.91555555      -0.10588252
S       -3.87231315       9.53185021       9.30037678      -0.05795707      -0.28590276       0.40530958
S        0.16759463       9.56473981       9.17952600       0.06599293      -0.32612577      -0.01079402
S        4.15336209       9.47186963       9.30367838       0.28741886      -0.11813036       0.00823530
S        2.07931132       1.34474734       5.92521724      -0.45141459       0.01144263       0.26774672
S        6.01719233       1.01180602       6.02360591      -0.24685482       1.46305738      -0.70636116
S       10.12984195       1.19442531       6.03406222      -0.54931062      -0.12108800      -0.56010918
S       -0.07520298       4.72837573       5.86901006      -0.43345773      -0.29369158       0.03247837
S        4.05932203       4.96445589       5.70573276       0.60613471      -0.38793131       0.76181644
S        8.13051177       4.85150543       5.85870880       0.34004412      -0.23706564      -0.10402087
S       -2.21625565       8.38582424       5.86583460       0.23006223       0.54254120      -0.02926886
S        1.99731684       8.28468769       5.70390021      -0.28116496      -0.07598674       0.02046644
S        6.08714758       8.68253294       5.91501374      -0.07594534      -0.42811742       0.01376792
S        1.95793471       1.15746270      12.70101036      -0.37627706      -0.14114119      -0.19950075
S        6.35140805       1.12307714      12.57701989      -1.75580747      -0.93640112      -0.45495596
S       10.22952088       1.16402256      12.68663625       0.57536051       0.30079769       0.24939877
S        0.06783796       4.72200452      12.53931481       0.82138860      -0.37498216      -0.66307441
S        4.40783047       4.70355366      12.61724808      -0.41078148       0.02796982       0.09242218
S        8.33663419       4.63904558      12.57358918       0.49623417       1.21462884       0.03378754
S       -2.10274654       8.32305166      12.73540483      -0.35425000      -0.22589566      -0.20534032
S        1.95003850       8.36986614      12.64285014       0.66959264      -0.33526531       0.53542698
S        6.08016416       8.36062272      12.61105853       0.50150730      -0.45961345      -0.10860743
