72
Lattice="12.39778545 0.0 0.0 -6.19889272 10.73679715 0.0 0.0 0.0 13.44794642" Properties=species:S:1:pos:R:3:forces:R:3 ref_energy_eV=-266.1993673 ref_gap_eV=2.1863 energy=-239.53930143 stress="-0.011093687436984976 -0.00048554427139971913 0.0028309260609078535 -0.00048554427139971913 -0.005314951016916 -0.00044908631836153686 0.0028309260609078535 -0.00044908631836153686 -0.0076196095558455435" free_energy=-239.53930143 pbc="T T T"
Cd       0.16736973       2.35435242      13.40025597      -0.92607712       0.83730494       0.62633072
Cd       4.28523156       2.21481057       0.00032867      -1.67074815       1.07023881       0.47835051
Cd       8.27206287       2.31626761       0.06447631      -0.03897643       0.17979158      -1.17682648
Cd      -2.20020293       5.85986097       0.08451658      -0.01305354       0.08315999      -0.82827974
Cd       2.04815842       6.05364266       0.01555995       0.17721894      -0.16656294      -1.21755365
Cd       6.23390854       5.94685211      13.39158756      -0.49490030      -0.60023924       0.70102908
Cd      -3.90973059       9.52369143      13.42347250      -0.82557456      -0.15646144       0.19698610
Cd      -0.09835343       9.38230263       0.11813470       2.12923119       1.21653929      -0.06215993
Cd       4.11705300       9.61899135       0.07724662       0.49924257      -0.43094425      -0.33472576
Cd      -0.00127709       2.39074287       6.72064054       0.51233527       0.08284440      -0.28722629
Cd       4.12879785       2.38013910       6.72628518       0.03755884      -0.12450494       0.03730409
Cd       8.47896046       2.34952634       6.81367693      -3.19392958       1.84663927       0.48846523
Cd      -2.05621158       5.89837901       6.72318072      -0.37410922       0.28153056       0.08472758
Cd       2.08019045       5.96924671       6.73276023       0.69468511       0.18011188       0.58847128
Cd       6.16248626       6.03419810       6.66599320       0.30135107      -0.39770433       0.20519437
Cd      -4.04080469       9.38467331       6.68853626      -0.91300591       0.85883856       0.72622560
Cd       0.02836856       9.55888643       6.69994644       0.03852866      -0.49482063       0.65046718
Cd       3.93153397       9.60666303       6.84127588       0.68719510      -0.01071049      -2.06250173
Cd       2.06460953       1.19616445       3.36518224       1.06294479      -0.50215532       0.03269620
Cd       6.23424445       1.29825046       3.38195748      -0.33898322      -0.14689320       0.40276746
Cd      10.22282379       1.19468804       3.37267006       1.37018361      -0.49334723       0.62322554
Cd      -0.03567618       4.79442926       3.32542702       0.23815065       0.49138192       0.07523153
Cd       4.10775677       4.85396813       3.46048985      -1.42540908      -0.76284886      -0.16227128
Cd       8.34327817       4.58858328       3.31611445      -0.87663386       0.46445965       0.19007071
Cd      -2.06124533       8.41081489       3.54137038       0.50854388      -0.24859938      -1.22629304
Cd       2.24516264       8.42354078       3.31218967      -2.43715504      -1.10939817       0.71843533
Cd       6.28371695       8.39314427       3.22777126      -0.04415126      -0.71029026       0.53758085
Cd       2.06288854       1.19199224      10.08584726       0.16193565       1.72232904      -0.37374294
Cd       6.37754171       1.17657302      10.07035253      -1.03943823      -0.26670119       0.40565689
Cd      10.35843231       1.05379560      10.21815138      -0.28009567       0.26642632      -0.86533851
Cd       0.05212011       4.87926177      10.03958148      -0.95424900      -0.60476335       0.55192313
Cd       4.14317495       4.88683293      10.16610030       0.38688608      -0.39528881       0.00257756
Cd       8.20663641       4.70416265      10.12456981       0.75778927      -0.07042699      -0.43058721
Cd      -2.06292913       8.30633028      10.08952621       0.31560801       0.32609733       0.11480119
Cd       2.27810721       8.35710288       9.95651513      -2.12707529      -0.38064982       1.55774504
Cd       6.16667702       8.34768918      10.08730367       0.41533910       0.03932452       0.28461676
S        0.15651752       2.40405703       2.72204039      -1.76150453       0.04331758      -1.03801857
S        4.13996181       2.39566622       2.54143232      -0.04265502       0.19097006      -0.00709030
S        8.35239537       2.28176029       2.41961692      -0.69377469       0.34250685       0.92963371
S       -2.18836844       5.92550263       2.50292049       0.62962714       0.56719824       0.66206098
S        2.04751882       6.05064709       2.37409078      -0.22854664      -0.22381348       1.85338864
S        6.01527105       5.81066518       2.58266117       2.26425182       1.17328893      -0.70234424
S       -4.00640201       9.52810651       2.54119496      -0.51372515       0.16414375      -0.27949501
S       -0.01565263       9.67469439       2.51238717       0.29718243      -0.65205712       0.95519678
S        4.09825281       9.44920704       2.54920281       2.10592155       1.66047447      -0.27379885
S       -0.18380678       2.46014992       9.22295439       0.77282874      -0.23084292       0.31051641
S        4.32256359       2.46376307       9.19791270      -0.78866648      -0.01451657       0.71873991
S        8.25207634       2.38095499       9.25052537       1.10432381       0.07485145       0.23958263
S       -2.08989655       5.97121068       9.24475015      -0.15250401      -0.14804327       0.09259450
S        2.01731856       6.03886582       9.41460740       0.97027859      -0.48140946      -1.08759705
S        6.38038651       5.97270031       9.23736172      -1.28691624       0.48191573      -0.26144816
S       -4.06906042       9.68721467       9.43696058      -0.34264974      -1.67976923      -1.07718668
S        0.10147792       9.53067851       9.34981143      -0.35530426      -0.27664409      -0.46292874
S        4.03977252       9.46175611       9.10556418       2.44070250       1.27978470       1.85671649
S        2.17296128       1.11575518       5.82127375      -0.76117600       0.05872532       0.88278778
S        6.15296575       1.10413185       5.97168715       0.74298674       1.05151197      -0.60885165
S       10.21545584       1.24286200       6.06691125       2.87697980      -1.54951232      -2.12349748
S        0.06203648       4.95197286       5.94098105      -0.40984002      -1.18676443      -0.62205934
S        4.15815011       4.74840641       5.91216506      -0.34581529       0.17808118       0.37100008
S        8.26526256       4.80634045       5.81254563      -0.06644846      -0.44335313       0.39167501
S       -2.05630791       8.36211707       5.89831408       0.81501640      -0.73778999       0.88685701
S        2.09244226       8.33716883       5.89588189      -0.41659859      -0.14858142      -0.46914418
S        6.15495343       8.38904281       6.05585825      -0.16857788       0.59603487      -0.86077272
S        1.98997648       1.09692789      12.56309562       1.11938195       0.12292935       0.25645647
S        6.21396019       1.26085999      12.65766884       1.13867506      -1.51060140      -0.82587141
S       10.33267629       1.19355627      12.62335197       0.44543208       0.20942125       0.61960914
S       -0.06276366       4.84023469      12.64355697       0.16721561      -0.44138668      -0.09773802
S        4.14580247       4.73621252      12.71468517      -0.39608219      -0.18908851      -0.33092267
S        8.13466485       4.64838466      12.52937798       0.81486040       0.10452535       0.95721946
S       -1.91947721       8.36691588      12.68897351      -1.50401014      -1.63248307      -1.20479796
S        2.18065517       8.42589869      12.60416121      -0.63869864      -0.06151712      -0.29645379
S        6.29250227       8.23935318      12.75361509      -0.15333297       1.43478593      -0.60739153
