72
Lattice="12.39778545 0.0 0.0 -6.19889272 10.73679715 0.0 0.0 0.0 13.44794642" Properties=species:S:1:pos:R:3:forces:R:3 ref_energy_eV=-269.36692795 ref_gap_eV=2.1823 energy=-242.51255771 stress="-0.002607049257724383 -0.002238503379364753 -0.0016905069483835026 -0.002238503379364753 -0.0010124684875192009 0.0005576720121866854 -0.0016905069483835026 0.0005576720121866854 0.0007419586920488411" free_energy=-242.51255771 pbc="T T T"
Cd      -0.03337831       2.39450890      13.31881574       0.01414951       0.19095281       0.35774713
Cd       3.92137782       2.41365508       0.04153129       0.61179546       0.12701333      -0.41928781
Cd       8.21366471       2.56664714      13.44706531      -0.45693249      -1.48413253       0.49622447
Cd      -1.98461425       6.18993867       0.09423971       0.12217963      -0.36721501      -0.93420789
Cd       2.13667966       6.17708114       0.03367003       0.44649450      -0.12184520      -0.62521805
Cd       6.23799745       6.05785019      13.29166017       0.24092951      -0.07448716       0.07029095
Cd      -3.98146963       9.54699565       0.12343655      -0.13836076       0.13706396      -0.10050270
Cd       0.01310118       9.55014947       0.12222180       0.64121048       0.20493813      -0.43816488
Cd       4.18681379       9.70172384       0.09362958       0.55041579       0.11319473       0.01095909
Cd      -0.04764494       2.53082307       6.79319315       0.06993323       0.53068622      -0.18616910
Cd       3.91672692       2.54197935       6.98631427       0.28996254      -0.52879174       0.02222433
Cd       8.08070497       2.35174768       6.60356971      -0.43309083       0.06835625       0.36829972
Cd      -2.13252373       5.85332666       6.68083650       0.63138575       0.13877285       0.14485895
Cd       2.08390905       6.10527398       6.50272343       0.01303181      -0.12113042       0.18022230
Cd       6.20594428       6.02870054       6.68513541       0.34564036      -0.18546769       0.52133241
Cd      -4.14696674       9.43348268       6.59966335       0.32529539       0.30140607       0.58357846
Cd      -0.02337478       9.59824614       6.62054640       0.53289562      -0.82881256       0.85701199
Cd       4.12628551       9.75498620       6.68392321       0.32878267       0.17928209       0.41845999
Cd       1.90240050       1.25690616       3.58277499      -0.27801989       0.02385530      -0.10633233
Cd       5.92894130       1.11838806       3.32104312       0.28778208       0.11474668       0.39031556
Cd      10.19168817       1.22348681       3.38318891      -0.05484805      -0.23700380       0.06143988
Cd       0.03883545       4.85414679       3.04865013      -0.13643766      -0.43106134       0.54279606
Cd       4.18329995       4.63832514       3.38384960      -0.17116651       0.46959477       0.30453275
Cd       8.21282848       4.83320241       3.32415161      -0.30535585      -0.68494648      -0.21101219
Cd      -2.00001961       8.34848220       3.40588541      -0.71606821      -0.26501194       0.27251174
Cd       1.99403818       8.37590913       3.32965788       1.00901181      -0.13174740       0.53359037
Cd       6.30791879       8.08098756       3.42886983      -0.15360999       1.30706942       0.06746657
Cd       2.02794098       1.09418807      10.02643356       0.35217218      -0.68829321       0.06781876
Cd       6.29660984       0.91693192      10.16119233      -0.61879982      -0.14665182       0.13260138
Cd      10.16898374       1.11025053       9.92204159       1.45042905      -0.37829608       0.67214633
Cd       0.23906929       4.78376848      10.19875191       0.13809542      -0.02746834      -0.62960682
Cd       4.21529603       4.70427205       9.99551942      -0.29528101       0.49172876       0.12698548
Cd       8.33212028       4.58136193      10.21231080      -0.07628955      -0.02675269      -0.00292467
Cd      -1.90433902       8.03129155      10.03293819      -0.38805197       0.35541126      -0.07630347
Cd       2.16784069       8.37007529      10.17936387       0.14973665       0.07789198      -0.63336940
Cd       6.32693334       8.18828242      10.20065722       0.31735248       0.17650772      -0.99317765
S       -0.13691680       2.34804735       2.52499220       0.26904446       0.34089698      -0.29155576
S        3.91509995       2.36201732       2.56270468       0.08923642      -0.23626710      -0.17297254
S        8.03881998       2.26616241       2.55710227       0.23034999       0.59347895       0.07791904
S       -2.16106381       5.96738344       2.45175603       0.27491076       0.19626845       1.09145802
S        2.16464324       6.01720250       2.47736442       0.01184136      -0.18810420       0.57453807
S        6.09755633       5.92885874       2.41559235       0.34062119      -0.57647084      -0.14859108
S       -4.09396013       9.65136880       2.63521735      -0.13475623      -0.68208973       0.16615414
S       -0.00384498       9.45889206       2.58738893      -0.28558592       0.54124871      -0.21405971
S        4.15576093       9.49276881       2.57737854       0.26412523       0.13137901       0.38573272
S        0.10871029       2.32080691       9.22466390      -0.94024678       0.59067729       0.72922544
S        4.16864651       2.27665838       9.52216824       0.19793233      -0.02942887      -0.70823843
S        8.18677925       2.20228770       9.29729652      -0.49335231       0.96705678      -0.85883272
S       -2.01878440       5.66554491       9.24449975       0.32250034       0.09916279      -0.07348052
S        2.22381124       6.16282322       9.03457960      -0.15178048      -1.16797794       0.75459587
S        6.35265682       5.80605931       9.21206949      -0.07450365       0.29147324       0.27629435
S       -3.94229759       9.40814610       9.20324589      -0.32492946      -0.14756032       0.10574347
S        0.06355936       9.33586630       9.21624777       0.02116742       0.27795030      -0.13909802
S        4.29029240       9.44391230       9.26378639       0.01406405       0.22701311      -0.21156515
S        1.91014757       1.22223350       6.07398030       0.65939647      -0.30910846      -0.19863885
S        5.97933507       1.09168049       5.93607215      -0.14769149       1.70692661      -0.44363913
S       10.28638463       1.47149899       5.99153874      -0.11708087      -0.83813345      -0.56879937
S        0.06389162       4.83981789       5.73908851      -0.25074658       0.06897765      -0.19955174
S        4.23382024       4.80540871       5.95258179      -0.71576550      -0.30373054      -0.49391625
S        8.21753896       4.78690395       5.82820698      -0.15048525      -0.23655182       0.00627257
S       -1.96974775       8.31219902       5.95968661      -0.74929647      -0.51291500      -0.43299290
S        2.14874190       8.53317819       5.92561812      -0.37436480      -0.27242956      -0.67463759
S        6.13482339       8.34551820       5.95755995      -0.04456500       0.42734854      -0.54545007
S        2.01104943       1.14707141      12.56892207      -0.12362316      -0.03005282       0.13814236
S        6.13588637       1.14415573      12.65476718       0.00809510       0.55650339       0.41786756
S       10.23779653       1.30613610      12.64361304       0.16494019      -0.15630091      -0.58482394
S        0.09530401       4.92891183      12.69729093      -0.05008702      -0.32671566      -0.01596875
S        4.21586936       4.81772768      12.58692094      -0.52178017      -0.11405845      -0.02387904
S        8.43943316       4.78992979      12.74801443      -0.39836398       1.28332734      -0.65537412
S       -1.93625643       8.43680438      12.59001074      -0.39585937      -0.06923288      -0.32765430
S        2.25179484       8.54379463      12.59078723      -0.81620769      -0.38684553       0.63344549
S        6.33337182       8.46672955      12.60323518      -0.25352248       0.00492805       0.77919314
