72
Lattice="12.39778545 0.0 0.0 -6.19889272 10.73679715 0.0 0.0 0.0 13.44794642" Properties=species:S:1:pos:R:3:forces:R:3 ref_energy_eV=-269.20975794 ref_gap_eV=2.2328 energy=-242.35039301 stress="-0.003616870034657293 -0.004641745699850872 0.0014661852379465206 -0.004641745699850872 0.00032978006490706123 -0.00022806097982977136 0.0014661852379465206 -0.00022806097982977136 -0.000537398173723245" free_energy=-242.35039301 pbc="T T T"
Cd       0.00912737       2.31029827      13.35415533       0.31598842       0.37277467       0.30181916
Cd       4.00792304       2.34672962      13.42588264       0.69288597       0.11208713      -0.01140100
Cd       8.12700246       2.58532101       0.15717180       0.25039729      -0.54993226      -0.46522067
Cd      -1.87417050       5.79177003       0.08932758      -0.25017163       0.09890568      -0.02693268
Cd       1.95187244       5.97947598       0.08408328       0.19590127       0.03522929      -0.40667797
Cd       6.24554925       5.82299789      13.32607508      -0.82975557       0.93842909       0.42256954
Cd      -4.09667407       9.35032758      13.31617053       0.21099281       0.27729665       0.11617899
Cd      -0.01796098       9.51111220      13.40175891       0.11446786       0.35987060      -0.55501727
Cd       4.03917898       9.55634267       0.12284578       0.59110066       0.08989437      -0.37216385
Cd       0.10693561       2.39929730       6.69754087       0.15062751      -0.22405401       0.42856584
Cd       4.41455292       2.45765061       6.72715822      -0.35737539      -0.37532508      -0.00226370
Cd       8.38681113       2.19857138       6.62524834       0.02684733       0.01815141       0.04830358
Cd      -1.96148308       5.86303606       6.93601855      -0.17492831       0.17692963      -0.74161658
Cd       2.14478602       5.88994472       6.81627198       0.90988318       0.39026044      -0.61577054
Cd       6.32810617       6.15860730       6.77761801      -0.26935732      -0.45513008      -0.28229636
Cd      -4.05600227       9.46302938       6.84817441      -0.81584841       0.33528362       0.09115016
Cd      -0.10934828       9.44717435       6.63689050       0.21199815       0.26443549      -0.10114878
Cd       3.93984780       9.54738281       6.70830447       0.62782320       0.14054611       0.09887371
Cd       2.10122075       0.98219716       3.46248109      -0.11531918       0.43458484      -0.22785352
Cd       6.26930446       1.16462984       3.16741486       0.05168198      -0.02754575       0.06488092
Cd      10.53234268       1.20248123       3.26755096      -0.54391286       0.06712757       0.20048985
Cd       0.04698116       4.81616924       3.50009298       0.04298436      -0.12619380      -0.08275929
Cd       4.08233771       4.63065606       3.21563086       0.39162731       0.28137108       0.42202175
Cd       8.02478805       4.88143361       3.64132842       0.30037998      -0.05257455      -0.00226997
Cd      -2.12426972       8.24238589       3.30428026       0.25090540      -0.41132659       0.56983123
Cd       2.00317634       8.37916882       3.28934739      -0.85627582      -0.20269810       0.04534364
Cd       6.25099200       8.39885817       3.14768107      -0.74124706      -0.47454252       0.55224600
Cd       2.11023035       1.05196916      10.20057276       0.17528872       0.57696285      -1.18813333
Cd       6.40543729       1.30216402      10.05127164      -1.36663273      -0.90588116       1.07207719
Cd      10.30728897       1.54489326      10.12864413      -0.33583957      -0.39332131       0.13837663
Cd      -0.15111642       4.92513495       9.82109296       0.67582671      -0.47723447       0.41827350
Cd       4.05488871       4.76749472      10.24904400      -0.69053707      -0.75687526      -0.20496514
Cd       7.99311815       4.94612045      10.04004516       0.22473740      -0.23979543      -0.00876111
Cd      -1.87838246       8.44084914      10.10645059      -0.69325416       0.07383048       0.27755566
Cd       2.03191490       8.51886593      10.11256779      -0.22777198      -0.58731070       0.35481771
Cd       6.00631129       8.40406359      10.06391231      -0.37615497       0.49665574       0.31544655
S        0.13195180       2.43158403       2.53770038       0.30742192      -0.05977175      -0.24872172
S        4.07937669       2.28789734       2.48623495       0.15179504      -0.31125422       0.08718747
S        8.35259746       2.55884310       2.60158148      -0.09026137      -0.51399411       0.38340980
S       -2.10057780       5.81642891       2.64982572      -0.11282861       0.02553326      -0.21892218
S        2.11503176       5.96445863       2.53395257      -0.54787190       0.05131823       0.32665479
S        6.11981265       5.96963227       2.38157873       0.10913895      -0.07724752       0.67813557
S       -4.08032164       9.42907491       2.47995974      -0.08853347       0.49875155      -0.59598620
S       -0.19939792       9.46270094       2.33952028       0.79877182       0.28420473       1.45189472
S        4.00709971       9.50450992       2.59183643       0.93830280       0.63270066      -0.01471621
S        0.08339718       2.42021666       9.32789356       0.02282126       0.22502579      -0.41781808
S        4.23120864       2.30251957       9.26647464      -0.59998275       0.41219244       0.10974400
S        8.10392733       2.52590379       9.11227349       1.85131576       0.95671246       0.04597831
S       -2.21248108       6.10021964       9.32299165      -0.45146907      -0.15832209       0.47654948
S        2.05090707       6.04809957       9.24038562      -0.02133436       0.16625938       0.69432400
S        5.87418679       6.05148993       9.29842064       0.80391020       0.20156570      -0.49968679
S       -4.21465840       9.45934548       9.41536035       0.35483422      -0.26607380      -0.49332942
S       -0.00817045       9.65360581       9.17814759       0.20613024       0.09307284      -0.09385133
S        3.90104329       9.80195582       9.25821518       1.01065798       0.02748228      -0.11598226
S        2.12471084       1.11268854       5.92241442       0.51213726       0.18118509       0.44829263
S        6.36989631       1.13689658       5.74404973      -0.69845962      -0.42988484      -0.03823171
S       10.48756213       1.19877983       5.86424384      -0.00411592      -0.26352627      -0.29209220
S        0.10100625       4.81918155       6.05106944      -0.31101825      -0.33800521      -0.52772498
S        4.28272033       4.75090121       5.79496285      -0.17699461       0.44905738       0.14865684
S        8.37459832       4.64234049       6.19632824      -0.56323151       0.82646818      -0.74317738
S       -2.17095730       8.20808526       5.95997682       0.49306559      -0.12358298      -0.61570123
S        2.01976092       8.34761885       5.78826093      -0.37464343      -0.51320584       0.30859957
S        6.12998807       8.43039011       5.78656447       0.24100970       0.10968153       0.22659346
S        2.10560678       1.11292700      12.56777389      -0.43398124      -0.43251761       1.04099851
S        6.20807118       1.16459870      12.67074011       0.01076017       0.47944298      -0.34313262
S       10.33217796       1.19864605      12.72096241      -0.74383219       0.25621283      -0.36552271
S        0.11272333       4.72692960      12.41456359      -0.34408725      -0.19693518       0.32228880
S        4.09564624       4.78391525      12.72720521      -0.38253716      -0.22089468      -0.06130343
S        8.23008570       4.85942790      12.58233896       1.47096341      -0.51335287      -0.54557903
S       -1.94469114       8.22054682      12.63284756      -0.56278007      -0.26880813      -0.20574093
S        2.06438229       8.38617598      12.72571867      -0.03535487      -0.47410761      -0.78532321
S        6.16751009       8.31682507      12.65655683      -0.50768216       0.00373176      -0.17033419
