72
Lattice="12.39778545 0.0 0.0 -6.19889272 10.73679715 0.0 0.0 0.0 13.44794642" Properties=species:S:1:pos:R:3:forces:R:3 ref_energy_eV=-269.71189862 ref_gap_eV=2.229 energy=-242.8361039 stress="-0.001113165662790328 0.0004977393064204173 -0.0012767760704051338 0.0004977393064204173 0.000902370788108307 0.0005501474110637579 -0.0012767760704051338 0.0005501474110637579 -0.0021074265884082487" free_energy=-242.8361039 pbc="T T T"
Cd      -0.03232995       2.24995296      13.37121150      -0.02504914       0.01554133      -0.08069526
Cd       4.26177917       2.20706161      13.36922550       0.01674385       0.45281268       0.23067430
Cd       8.23978722       2.50073717       0.10506638       0.11505539      -0.56856655      -0.07167681
Cd      -2.17850774       5.85649080       0.00499161       0.27103243       0.39952333      -0.11586025
Cd       1.96301936       5.79675684       0.03988513       0.08331092       0.00181604      -0.33633087
Cd       6.07831974       6.02999647       0.13276041       0.23368414      -0.00821057      -0.21684052
Cd      -4.18670995       9.65722164      13.40075663       0.16305330       0.14568563       0.52023707
Cd      -0.07189128       9.29782733      13.38546390       0.32533646       0.47231164       0.33049783
Cd       4.26305174       9.51896552      13.30881155      -0.61147722       0.40682938       0.19582144
Cd       0.04362099       2.36846659       6.79197168      -0.02635296       0.32531566       0.19365126
Cd       4.23618251       2.27036415       6.74884465       0.03483877      -0.07164238      -0.75233821
Cd       8.24126522       2.53857052       6.50273405      -0.11523042       0.21173519       0.33648768
Cd      -2.21187979       5.99205328       6.68293976       0.71381386       0.11652846       0.21704610
Cd       1.94756291       6.03710971       6.96631811       0.17322036      -0.51856315      -0.60057992
Cd       6.11113885       6.02742555       6.78101953      -0.47203964      -0.20641127      -0.18900307
Cd      -4.22650312       9.47821089       6.82290437       0.35408086      -0.53398289       0.33830938
Cd       0.03026337       9.64218261       6.71164561      -0.00692173      -0.54000791      -0.34515844
Cd       4.00867385       9.67893972       6.65498767       0.12251770      -0.18146566       0.18865530
Cd       2.14647149       1.02081173       3.43305941      -0.02001322       0.05071219       0.23736163
Cd       6.18283220       1.16552775       3.21689039       0.73235817      -0.15806739      -0.07605833
Cd      10.39948888       1.28172309       3.40947453      -0.20872497      -0.32789828      -1.11992250
Cd       0.05610643       4.70416598       3.36027616       0.27164994      -0.16968074       0.00998457
Cd       3.99807678       4.64933530       3.42943774       0.22994661       0.35447196       0.13100896
Cd       8.52252863       4.99446395       3.19444631      -0.26526469      -0.10690847       0.33112879
Cd      -1.94916581       8.52791394       3.44253416      -0.40867859      -0.13569437      -0.18248358
Cd       2.12106546       8.39264103       3.36716501       0.15923063       0.12170218       0.08718091
Cd       6.03688058       8.22683804       3.44453978       0.25440532       0.52998391      -0.75646498
Cd       2.25117228       1.14003806      10.11792491      -0.22163038       0.31431640      -1.11280915
Cd       6.37568446       1.08919127      10.08852192      -0.32834269       0.61455263       0.40575726
Cd      10.21850359       1.29474801      10.03441061       1.01516065      -0.21780653       0.04321142
Cd      -0.04190055       4.95287443      10.03801627      -0.05023761      -0.72002728       0.45098167
Cd       4.31013766       4.80416067      10.12676922       0.16477523      -0.60979286      -0.02177331
Cd       8.39869745       4.71866892      10.01541256       0.04948161       0.09530023       0.49682848
Cd      -2.01644122       8.49969109      10.23682022      -0.23532760      -0.60344694      -0.40913627
Cd       1.86513295       8.28160140      10.10954657       0.44316717      -0.21751113       0.45176661
Cd       6.05675206       8.43898137      10.04155550      -0.24979729      -0.25671259      -0.12365796
S        0.12919416       2.20722706       2.43423134      -0.07698843       0.70602036       0.43913261
S        4.18332654       2.30178496       2.54244159      -0.82560071       0.31294319      -0.46817460
S        8.26354757       2.52547883       2.55861301       0.36808104      -0.14763376       0.47885523
S       -1.79162939       6.16461261       2.44732561      -0.39305070      -0.32221133       0.36062513
S        2.09117241       6.09335034       2.51625171       0.04658736      -1.16204326       0.19266871
S        6.21346372       5.91857869       2.61645478      -0.20950558      -0.36618630       0.01524417
S       -4.13673113       9.44744761       2.49420340      -0.14160208      -0.18487299       0.15454419
S        0.10691212       9.50384553       2.50489021      -0.25439073       0.42038383      -0.35303693
S        4.11147617       9.53978589       2.42574555       0.35996189       0.48805498       0.23483635
S        0.09643686       2.48369937       9.36196649      -0.26600212      -0.51362895      -0.25357888
S        4.30455469       2.33224267       9.15499130      -0.03924616       0.09242471       1.19433675
S        8.27112095       2.38130243       9.12268099      -0.31889984       0.43939669      -0.46181185
S       -2.03867566       6.09176527       9.21415406      -0.22554792       0.16304274       0.17434775
S        2.17200232       5.81625497       9.40253410      -0.18095411       0.78505226       0.00493574
S        6.34103222       5.93971944       9.27809380      -0.30312020       0.55557207       0.01867326
S       -4.14496847       9.44700332       9.43539604      -0.26301177       0.42742847      -0.87028892
S       -0.07542186       9.56316977       9.20411530       0.33296580      -0.32085884      -0.06079307
S        3.89331475       9.57494041       9.25712468       0.55990471      -0.04158204      -0.19227019
S        2.08153859       1.04033852       6.06492392       0.07271188       0.80973532      -0.74994639
S        6.34878623       1.14371423       5.69535229      -0.53798134       0.30243275       0.55157867
S       10.28566506       1.33672555       5.80312064       0.50295877      -0.32610151       0.89904595
S       -0.07217234       4.83634153       5.93075752       0.17230353      -0.41042274      -0.09422578
S        4.00649153       4.67117437       6.00351831       0.17502296       0.42153972      -0.19590453
S        8.18066063       4.96029528       5.86992305      -0.27360675      -0.53509459      -0.70987432
S       -2.05830259       8.36048293       5.91056718      -0.08366260       0.44920360       0.30435201
S        2.06351791       8.26184387       5.86646477      -0.12183979       0.49350276       0.29644720
S        6.12920329       8.38338076       5.86065136      -0.31093972       0.14142090       0.84675509
S        2.12682100       1.22964007      12.50697613      -0.11924407       0.14558809       0.92111294
S        6.36104733       1.07280660      12.66477527      -0.26738321      -0.25668652      -0.30458146
S       10.21433106       1.26979751      12.54116081       0.24665901      -0.58298542       0.24581961
S       -0.14813463       4.64300198      12.64248046       0.46452660       0.46031476      -0.32894550
S        4.16837617       4.71810953      12.62850643      -0.28189433      -0.21636509       0.24538306
S        8.18465439       4.75749468      12.69200494      -0.42344012       0.57315535      -0.84101256
S       -2.21031723       8.36496715      12.64327644       0.33644892      -0.59847433       0.38547007
S        2.08672192       8.25211901      12.73302750       0.05654954      -0.11793727      -0.71211580
S        6.30101254       8.38474648      12.56102060      -0.45854496      -0.56086951      -0.05340491
