72
Lattice="12.39778545 0.0 0.0 -6.19889272 10.73679715 0.0 0.0 0.0 13.44794642" Properties=species:S:1:pos:R:3:forces:R:3 ref_energy_eV=-269.25299633 ref_gap_eV=2.2337 energy=-242.36354872 stress="-0.0016046056886763929 -0.0016049417252862214 0.0009492396907156268 -0.0016049417252862214 5.76421717812149e-05 0.0003717289980817576 0.0009492396907156268 0.0003717289980817576 -0.004235774640508348" free_energy=-242.36354872 pbc="T T T"
Cd       0.16767044       2.39746636       0.14984818      -0.64829274       0.31762118      -0.52418824
Cd       4.07737612       2.38165052      13.32162959       0.19657158       0.45101777       0.40102969
Cd       8.22301450       2.49660328      13.32087314      -0.03241013      -0.70314521       0.44806082
Cd      -2.16042086       5.74002382       0.12200206       0.36222242       0.50841052       0.28222756
Cd       2.12036064       6.08138203       0.10223425      -0.02244905      -0.25401117      -0.04263752
Cd       6.19950127       6.04080950      13.15429921       0.47139849       0.30462042       0.82442610
Cd      -4.10426480       9.61714397      13.40213075       0.07142183      -0.37210370      -0.23376851
Cd      -0.08277995       9.51072889      13.43075483      -0.11094327      -0.73914104      -0.03540284
Cd       4.15370265       9.47547655      13.32116591       0.03260553      -0.06991318      -0.22596201
Cd      -0.11050605       2.44154552       6.59225434       0.15429609      -0.29494274       0.41222632
Cd       4.12168419       2.14771589       6.70344788       0.24269666       0.74804334       0.61404008
Cd       8.33380037       2.26514585       6.78660904      -0.40126564      -0.12657003       0.01632439
Cd      -2.03477042       5.95214320       6.88136623       0.10494014       0.05481979      -0.26451698
Cd       2.21342047       5.73844454       6.59102022      -0.22914021       0.55935390       0.51777410
Cd       6.14848829       5.89839093       7.08460598       0.16797078      -0.11741282      -1.81291583
Cd      -4.08442710       9.50080949       6.69603793       0.00463626      -0.13580329      -0.02226302
Cd       0.01908361       9.37173311       6.80838194       0.25373309       0.09510000       0.07865633
Cd       4.11611963       9.53912471       6.56672610      -0.23558681       0.25319313      -0.44611063
Cd       2.17068852       1.18949722       3.30384508      -0.06402230      -0.28497425       0.34632985
Cd       6.13364262       1.22424515       3.38210177      -0.13192519       0.74316353      -0.05395964
Cd      10.07674589       1.32154050       3.13719288       0.98737594      -0.58103319      -0.46944330
Cd       0.17674444       4.68999834       3.37679279      -0.33424207       0.06417599      -0.20421565
Cd       4.22835071       4.89006170       3.44656451      -0.22471282      -0.03413282      -0.42475403
Cd       8.11833734       4.93193639       3.59081189       0.14579445      -0.12572788      -0.22576846
Cd      -2.05213816       8.29840835       3.28286346       0.44716799      -0.29273125      -0.06111169
Cd       2.10309660       8.58903251       3.17318833       0.10516771      -0.31777567       0.62016728
Cd       6.20178854       8.29705229       3.51100881       0.06325800       0.37133087      -1.39354177
Cd       2.03922371       1.31751109      10.08407011      -0.38324835      -0.22355950      -0.50247933
Cd       6.12813670       1.09293380      10.27078207      -0.15446625       0.00446396      -0.58653899
Cd      10.34583511       1.26003841      10.23446818      -0.00879245       0.16499846      -0.09848360
Cd      -0.01239791       4.84347098      10.30757619       0.15103935      -0.05273122      -0.39665414
Cd       4.08141761       4.63031109      10.05223600       0.02993179       1.17144705       0.60691412
Cd       8.44624711       4.85329322      10.14571375      -1.22553743      -1.14771537      -0.67357935
Cd      -2.10394405       8.40299871      10.08449722      -0.91420780      -0.29112746       0.39254588
Cd       2.13796407       8.34199416      10.01235813      -0.12098421      -0.09522625      -0.33825581
Cd       6.11628684       8.51759985       9.92131351      -0.42707322      -0.47069151      -0.11911737
S        0.04251932       2.28815298       2.53889348      -0.23601260       0.22717563       0.81723598
S        4.05175461       2.55038379       2.43631335       0.49743460      -0.27046162       0.21286704
S        8.17985304       2.56122345       2.49134934      -1.05375393       0.40098269      -0.35278657
S       -2.05081235       5.82041462       2.65252715       0.01733073       0.18459990      -0.14856772
S        2.10522202       6.11070970       2.61999509       0.08791716      -0.18888740      -0.04550603
S        6.16280401       6.05299458       2.39966218       0.41062823      -0.07580693      -0.03409812
S       -4.02440595       9.49868296       2.45580346      -0.73149911       0.26804520       0.29771019
S       -0.00592149       9.68288785       2.50371648      -0.28737599      -0.64165113      -0.17845769
S        4.21758001       9.60962081       2.34579859       0.18249531       0.04265465       0.70882586
S       -0.01054277       2.53413225       9.28434171      -0.42894729      -0.37254557      -0.42711170
S        4.11614257       2.37702779       9.30979800       0.41486992      -0.80911478      -0.53942477
S        8.12019725       2.26975741       9.36113702       0.69420686       0.57438974      -0.21536594
S       -2.07829452       5.98595327       9.39426133       1.16377695       0.51008265      -0.75945377
S        2.02300418       5.90862224       9.25827744       0.34293741       0.17547621      -0.30604865
S        6.25847376       5.92135179       9.39252480      -0.39974759       0.34537705       1.34982089
S       -4.20470534       9.61348036       9.29230976       0.60741148       0.17833050      -0.57101215
S       -0.12294369       9.46739518       9.36475492       1.14340068       0.44374031      -0.61107768
S        4.06221729       9.71168630       9.03154466       0.03580742      -0.17408898       0.78663310
S        2.06930402       1.20879919       5.94970595      -0.97929830      -0.54938172      -0.61535915
S        6.08465054       1.00501715       5.91817078       1.17771218       0.16142032      -0.13839570
S       10.30699043       1.22894926       5.55465974       0.02677178      -0.35234271       1.40151143
S        0.02467885       4.80784790       5.88630143      -0.16309705      -0.01397649       0.05117321
S        4.26377676       4.59732464       5.90505231       0.32003418       0.01494013       0.30087194
S        8.31852122       4.73001557       6.09880077      -0.49829258       0.03046230      -0.10892141
S       -1.95455538       8.25411616       5.80345993      -0.79301929       0.04843332       0.42263525
S        2.06875808       8.22531664       5.87484002       0.10876443       0.12123197      -0.33946535
S        6.13825993       8.23603422       5.86785448       0.54113621       0.00982308       1.25127920
S        2.02467906       1.26891989      12.53538599       0.32423671      -0.59984543       0.22740782
S        6.12605313       1.10031084      12.70542720       0.32082713       0.68436664       0.17824922
S       10.38607051       1.21789648      12.79574697      -0.14828140       0.20939800      -0.48915448
S        0.03423091       4.79487538      12.75274057       0.10356828      -0.03494568       0.35815012
S        4.20832705       4.86987029      12.72689793      -1.23191559      -0.87625507      -0.81468412
S        8.21947128       4.80075807      12.52171588       0.09272065      -0.17656831       0.71193816
S       -2.12377548       8.16214089      12.59004624       0.06079336       0.38751607       0.48851820
S        2.02873834       8.35127205      12.50592571       0.03944666       0.24631647       0.33054325
S        6.25779802       8.34756184      12.40618363      -0.08591576       0.78981865       0.39446633
