72
Lattice="12.39778545 0.0 0.0 -6.19889272 10.73679715 0.0 0.0 0.0 13.44794642" Properties=species:S:1:pos:R:3:forces:R:3 ref_energy_eV=-269.5229275 ref_gap_eV=2.1826 energy=-242.62531102 stress="0.0009897761017185354 2.955310880541842e-06 0.00046042973691106303 2.955310880541842e-06 0.002796240577872749 0.00020297437609445365 0.00046042973691106303 0.00020297437609445365 -0.004016811796184213" free_energy=-242.62531102 pbc="T T T"
Cd      -0.06371928       2.50846540      13.39715904      -0.22780698      -0.38967114       0.06527212
Cd       4.03885130       2.18755295       0.02789884       0.52125130      -0.02481186       0.20813209
Cd       8.25684223       2.42690000       0.15838010      -0.54810855      -0.21192302       0.26139857
Cd      -1.95870951       6.24555067      13.29282194      -0.28833447      -0.27402584       0.56609544
Cd       2.11088898       5.78340821      13.24092389       0.84515434       0.33326618       0.21632230
Cd       6.30794464       5.84050091       0.00765175      -0.07320561       0.12647977       0.23662338
Cd      -4.36461737       9.51479449       0.07909463      -0.12377417      -0.33213432      -0.19269878
Cd       0.02790004       9.59625178       0.12616379      -0.00649028       0.48677494      -0.42590943
Cd       4.11510202       9.52126105      13.31616394      -0.57427097       0.28476431       0.39906182
Cd      -0.03570395       2.31241009       6.60455128       0.34993163       0.19665216       0.23360158
Cd       4.06265176       2.36153706       6.74205048      -0.09172277      -0.20458585       0.27966714
Cd       8.29026988       2.54904287       6.60338386      -0.18734468       0.37174521      -0.82603996
Cd      -2.09589919       5.83344340       6.55811538      -0.42660516       0.06293802       0.46076956
Cd       2.13011596       5.93824807       6.68287481      -0.18155504       0.62496354       0.45018065
Cd       6.02118926       6.19225696       6.89207415       0.57217369       0.06516682      -0.33904454
Cd      -4.16245120       9.43179464       6.71191928      -0.13579799      -0.20557352       0.16523566
Cd      -0.20357678       9.50250558       6.80928241       0.75639423       0.01546170      -0.17140346
Cd       4.08867534       9.69495590       6.83209174      -0.26719295      -0.53123975      -1.05569501
Cd       2.09505335       1.14981617       3.34298748      -0.45502059      -0.74198954       0.12165817
Cd       6.19796190       1.31252170       3.54869305      -0.16534468      -0.27573015      -0.30872516
Cd      10.38388974       1.09004335       3.27899355      -0.27906935      -0.47107732      -0.08929649
Cd       0.01379768       4.64732720       3.22540509       0.26730065       0.63725567       0.24479411
Cd       3.99196009       4.80077503       3.55907446      -0.10723594       0.35701418      -1.27724257
Cd       8.35403721       4.78839121       3.28860210      -0.00493453       0.90744650      -0.35571971
Cd      -2.06050592       8.42670578       3.42400705      -0.14688258      -0.41949917      -0.04368960
Cd       1.98464940       8.35401090       3.35083126       0.38598466      -0.03280381      -0.19653852
Cd       6.13329078       8.21039346       3.33892660       0.11125399      -0.00344993      -0.33123734
Cd       2.13735329       1.14935502      10.24102176      -0.38141704      -0.35901752      -0.75797915
Cd       6.38459543       1.26884291       9.92974027       0.14639356      -0.28367596      -0.16112780
Cd      10.45653853       1.33662828      10.17740558       0.12397444       0.02952954      -0.63960872
Cd       0.14165474       4.82442734      10.04732118       0.20899778       0.08907573      -0.68216208
Cd       4.23762301       4.71386592      10.22143201      -0.46521519      -0.27005463      -0.92014916
Cd       8.38582954       4.69394723      10.18945911       0.10085732      -0.18372841      -0.20674543
Cd      -2.15204473       8.23687641      10.13048744       0.08883547       0.43447088      -0.07280490
Cd       2.20175068       8.65051259      10.19346230      -0.49798604      -0.49544005      -0.08640511
Cd       6.11260396       8.18862074       9.98819607       0.14950949       0.57831994       0.38240719
S       -0.00283643       2.28608561       2.50621873       0.23448621       0.09969588      -0.39579985
S        4.03361894       2.41449492       2.68501954       0.77427557       0.06126042      -0.79617298
S        8.30456100       2.44571462       2.69982384      -0.12637592      -0.81412394      -0.55079145
S       -1.94341318       6.02575758       2.46627161      -0.37988565      -0.01382931      -0.13965066
S        2.04146622       6.06118504       2.32023982       0.09173357      -0.79032554       0.64033379
S        6.11685286       5.88191231       2.53800094       0.17691259      -0.43710582      -0.17029682
S       -4.20067847       9.39121052       2.52091492       0.12294578       0.55561376       0.46757621
S       -0.03391959       9.57995385       2.59846573      -0.01332533       0.78933986       0.07793217
S        4.15820069       9.40684072       2.45117871      -0.48111088       0.63076381      -0.18820943
S        0.12723835       2.36666409       9.21344925       0.11605899       0.36728636      -0.08517979
S        4.13992177       2.22241211       9.34436864       0.29241838       0.82571518      -0.56651914
S        8.50846229       2.42889543       9.00522986      -0.57253064      -0.01300600       1.12079155
S       -2.05013673       5.89712378       9.19650914       0.32494919       0.12179682      -0.03386919
S        2.31355118       6.18831935       9.37002141      -0.42567929      -0.65220320      -0.44456769
S        6.29092106       5.82591079       9.33659559       0.00404864      -0.01067480      -0.20584709
S       -4.23242065       9.50562526       9.21397789       0.22342259      -0.16313007       0.46851161
S        0.01060011       9.49012594       9.27249824      -0.23633106       0.21179181       0.38394535
S        4.18575490       9.70512333       9.22296596       0.42975803      -0.13835272       0.76127831
S        2.07284408       1.00067068       5.86572097      -0.08557129       0.96593302       0.02428187
S        6.18672771       1.18278780       6.03103899       0.05349264       0.15014931       0.01536398
S       10.29275133       1.20350348       5.77655126      -0.08022033       0.31357449       0.09942931
S        0.00111196       4.81546941       5.87164021       0.56654010      -0.69138945      -0.36127583
S        4.23033274       4.77132346       5.94115978      -0.49047095      -0.25596030       0.67792117
S        8.07673607       5.04281723       5.71156353       0.17964926      -0.66980076       0.96512946
S       -2.11573130       8.25440498       5.94945581      -0.10049151       0.10864833      -0.39005267
S        1.99595544       8.43425514       5.80907996       0.17808847      -0.24685180       0.83894196
S        6.12296038       8.44862183       5.76584670      -0.34844009      -0.06668902       1.03020239
S        1.93629283       1.09460273      12.65216110      -0.12291392       0.46410948       0.55502280
S        6.29759255       1.27698859      12.45291081      -0.33021380      -0.34334246       0.88266467
S       10.16981216       1.28591935      12.57397796       0.88365518      -0.56752692       0.65408866
S       -0.01646655       4.84773896      12.53044750      -0.25685642      -0.31804125       0.03543477
S        4.32795755       4.53985218      12.60861826      -0.71800839       0.31715918       0.83768879
S        8.42615835       4.70835032      12.68247479       0.04891817       0.73677211      -0.06789147
S       -2.14880946       8.63236537      12.71557206       0.09284921      -0.34322218      -0.68365227
S        1.95172776       8.29385595      12.65897800       0.42673125       0.07920213      -0.04996191
S        6.05442121       8.22976833      12.61620492       0.55479467      -0.15412971      -0.55779749
