72
Lattice="12.39778545 0.0 0.0 -6.19889272 10.73679715 0.0 0.0 0.0 13.44794642" Properties=species:S:1:pos:R:3:forces:R:3 ref_energy_eV=-266.09969004 ref_gap_eV=2.1716 energy=-239.46310815 stress="-0.012536176985263372 -0.0029542906746676703 -0.0030105642208107797 -0.0029542906746676703 -0.005790899835604442 -0.0032738294529481627 -0.0030105642208107797 -0.0032738294529481627 -0.006904372755406019" free_energy=-239.46310815 pbc="T T T"
Cd      -0.16530711       2.49136791       0.01980600       1.17574881       0.15020085       0.08842459
Cd       4.07945138       2.33739795       0.03859130       0.10035094       0.35166559      -0.44887260
Cd       8.40413121       2.55271948       0.07286097      -1.14014107      -0.02643644      -0.29451029
Cd      -2.06136317       5.98044347       0.00171488      -0.27474747       0.21343648      -0.29093361
Cd       1.87173434       6.08058858      13.37547624       1.13133027      -1.19080015       0.61031254
Cd       6.20485011       5.87523510       0.00567947       0.20671317       0.19167891       0.46907804
Cd      -4.21864565       9.35170028       0.00782428       0.44379084       0.75000728       0.13420643
Cd      -0.07874155       9.46600401       0.10932468       0.15022113       0.70853802      -2.07733813
Cd       4.03254591       9.57486730      13.38363242       0.06048574      -0.76360205       0.06538348
Cd       0.06706595       2.34937807       6.82403669      -0.72857646       0.20064229      -0.66304302
Cd       4.07330208       2.35363735       6.60390241       0.51861580       0.38746933       0.27447168
Cd       8.29488682       2.26674263       6.73873556      -0.59108005       0.96871442       0.57746050
Cd      -2.25364569       5.81857390       6.67531491       1.91094991       1.43038040       1.12758340
Cd       2.10268252       5.97180056       6.58712691      -0.53201350      -0.24475544       0.79798034
Cd       6.05845068       5.87885973       6.66845215       1.45702887       0.86420569       0.41581120
Cd      -4.15792521       9.63603290       6.75791287       0.07123138      -0.42566626      -0.22019184
Cd      -0.14131349       9.48164656       6.74500284       1.59580042       1.19355389      -0.11630436
Cd       4.09704143       9.43216281       6.55511152       1.16557492       0.63262644       0.44116938
Cd       2.18657039       1.29948680       3.22373566      -0.82912103      -0.53391999       0.44719590
Cd       6.19156681       1.20096326       3.39342010       0.18817409       0.40925648      -0.47254713
Cd      10.31425504       1.27708726       3.36144411       0.02633535      -1.62679786       0.47806049
Cd       0.06759372       4.75077312       3.41708970      -0.29157697      -0.09873679      -0.30543022
Cd       4.00352821       4.62739422       3.27757775       0.37929818       4.75453754       1.59304649
Cd       8.30988467       4.65251801       3.33177122      -0.47072777       0.66570349       0.40260585
Cd      -2.11625238       8.42993487       3.38648527       0.56714189      -0.51845670       0.19404119
Cd       2.09563289       8.37016161       3.37330319      -0.22410420       0.21220634       0.16010530
Cd       6.25585225       8.43145477       3.16419138      -0.51583255      -0.21621166       0.84228578
Cd       2.04925791       1.15801736      10.07916201       0.31844069       0.28570397      -0.21634930
Cd       6.25423582       1.22504107      10.10787661      -0.71107678      -0.37009961      -0.24443129
Cd      10.30584277       1.30181175      10.13597125       0.12602533      -0.82561583       0.20868160
Cd      -0.07805862       4.75766346      10.06887649       0.31669154      -0.00523810      -0.33480722
Cd       4.15467984       4.83661414      10.13472879       0.42386805      -0.85162492      -0.15795410
Cd       8.21245816       4.72023542       9.99429915       0.35280975       0.49234895       0.34466180
Cd      -2.18126748       8.40684904      10.28714943       0.61818411      -0.04673175      -1.73697728
Cd       2.17133990       8.19563272      10.13937560      -0.06246254       0.93750647      -1.15209913
Cd       6.21746201       8.35649131      10.05931634       0.53160926      -0.86594740       0.45233912
S       -0.09652643       2.19058277       2.57852471       1.68806707       1.40766773      -0.68913224
S        4.09481211       2.61078880       2.58432481       0.97346760      -4.38071445      -1.67669421
S        8.41165728       2.31557004       2.52610072      -1.86742268       0.54500760      -0.19995101
S       -2.09352892       5.90290221       2.42372486       0.43155370       0.44547818       1.13392324
S        2.08130421       6.05419721       2.48711270      -0.44973269      -0.51915695      -0.03339309
S        6.17219806       6.08587173       2.55221851       0.15509709      -1.44064363       0.01756439
S       -4.13401986       9.57395327       2.56790621       0.69366767       0.69270647      -0.50562922
S        0.04697385       9.68668728       2.37124304      -0.19214636      -0.50720915       2.46566981
S        4.12823878       9.45450168       2.47261151      -0.18069349       0.79883446      -0.02954195
S       -0.02411642       2.36349760       9.25413548       0.06853638       0.06864974       0.48463827
S        4.07176711       2.33908405       9.08204251       0.35918071       0.23444838       0.83117090
S        8.28002677       2.38889742       9.25889565      -0.00157496      -0.29965173      -0.17121032
S       -2.06017398       5.99708121       9.35756861      -0.48633472       0.17596696      -0.59992715
S        2.10227240       5.87934428       9.43491420      -0.63902314      -0.15225281      -1.31835082
S        6.20317133       5.89706558       9.18385785      -0.04021693       0.44120652       0.21144539
S       -4.15761867       9.53291852       9.28177921       0.23248678       0.01257583      -0.32445134
S        0.01378423       9.52269001       9.12631638       0.17439869       0.05455226       1.57873638
S        4.31351699       9.45418344       9.21181775      -1.62509426       0.98336952      -0.26339333
S        2.04773522       1.27324660       5.84919586      -0.24734928      -0.62993016      -0.60234609
S        6.24699303       1.36660724       5.80952079      -0.71187799      -0.92185601       0.34449504
S       10.17643394       1.27967483       5.79939677       1.88940102      -1.12968027       0.46185544
S       -0.09133529       4.77911923       5.93779779       0.55275634      -0.14032384      -0.01301463
S        4.15189053       4.82643941       5.91851424      -1.22779275      -1.06991007      -1.08638009
S        8.26941222       4.76748312       6.03686666      -1.99075231      -1.20190850      -1.34063590
S       -1.96323544       8.33139104       5.99342334      -1.96945555      -0.80470116      -1.23943383
S        2.08059946       8.33864912       5.92766436      -0.97108504       0.09829720      -0.52774809
S        6.29792673       8.25317369       5.79480564      -0.22166208       0.59183947       0.06612674
S        2.15055408       1.06546091      12.53688180      -0.78989176       0.27868201       0.88078824
S        6.18797455       1.30329804      12.61070995       0.50286166      -0.42756581       0.39858607
S       10.28691172       1.23432282      12.80066126       0.12779061      -0.54119809      -1.34492084
S       -0.06386173       4.90388672      12.54174122      -0.00016173      -1.22807343       0.33478435
S        4.21231795       4.79669591      12.61418692      -1.13834867      -0.36415074       0.36104652
S        8.30580425       4.83924970      12.60151237      -0.10580067      -0.11710936      -0.39966420
S       -2.06120696       8.36159644      12.61446408      -0.20063138      -0.09927945       1.20542086
S        1.88403585       8.25690741      12.52152802       0.62105133       1.74497530       0.55532714
S        6.20605574       8.25453844      12.63704265      -0.87822822       0.21131610      -0.35887599
