72
Lattice="12.39778545 0.0 0.0 -6.19889272 10.73679715 0.0 0.0 0.0 13.44794642" Properties=species:S:1:pos:R:3:forces:R:3 ref_energy_eV=-269.62980872 ref_gap_eV=2.2153 energy=-242.74166156 stress="-0.0016952052069289564 0.00202035266148355 -0.001672094895918731 0.00202035266148355 -0.001655845289188731 -0.0020159293226905636 -0.001672094895918731 -0.0020159293226905636 -0.0004360601452611086" free_energy=-242.74166156 pbc="T T T"
Cd       0.03212242       2.33900310       0.07205692      -0.30287002      -0.02880276      -0.42859342
Cd       4.20809242       2.25043011       0.03202279      -0.33065443       0.44789735       0.20778384
Cd       8.29902557       2.37048113      13.37871384       0.32712107       0.19701134       0.44365456
Cd      -2.12812165       5.92833586      13.37061158       1.14272881       0.93329807       0.29508167
Cd       2.13146528       5.85562466      13.12921140       0.00438596      -0.00171166       0.34689118
Cd       6.36265167       5.77754431       0.12452919      -0.72325950       0.58579300      -0.03356200
Cd      -4.32331823       9.48338077       0.06655442       0.69947197       0.08715598      -0.08955722
Cd      -0.00510937       9.43919466       0.13133480       0.24839227       0.02881981      -0.85835065
Cd       4.09953778       9.52406238      13.41520323       0.13900250       0.06473161      -0.00302558
Cd       0.05342981       2.34484875       6.68167202      -0.21690428       0.18000861      -0.02405054
Cd       3.87475527       2.43819242       6.89400420       0.00875131       0.20581330      -0.32957936
Cd       8.10226732       2.37810608       6.71998347       0.57452457       0.66352038       0.43669240
Cd      -1.87357032       5.85181084       6.66874639      -0.19014760       0.23165655       0.36006860
Cd       2.19522783       6.06976772       6.69611458       0.18924708      -0.37408254       0.03962650
Cd       6.24355618       5.98994500       6.59922871       0.20204936      -0.04905765      -0.30255082
Cd      -4.27179657       9.31363254       6.91308146      -0.26309101       0.45318487      -0.03819844
Cd      -0.01395662       9.64354200       6.67867286      -0.66797384      -0.10410119       0.28696798
Cd       4.04989364       9.51654265       6.78362225      -0.15823689       0.19324969      -0.59904120
Cd       2.14926930       1.22368308       3.46017235      -0.27846846       0.50618736      -0.56074153
Cd       6.08721540       1.30803941       3.55122772       0.51458846      -0.07349097      -0.30824586
Cd      10.35446329       1.19721108       3.47989806       0.04866512      -0.12011520      -0.18329817
Cd      -0.02771500       4.71823934       3.26130492       0.19209984       0.85558432      -0.05847472
Cd       3.96801953       4.90467212       3.21327141       0.50352372       0.25638051       0.22312705
Cd       8.22525658       4.64325333       3.25652741      -0.01126472       0.44985043       0.31123097
Cd      -2.10943726       8.35395796       3.59880696       0.42626644      -0.36302152      -0.72994163
Cd       1.99686519       8.33563165       3.29300483       0.17634211       0.09426406      -0.00753291
Cd       6.33539061       8.47910510       3.37725056      -0.50497581      -0.18281496      -0.51767308
Cd       1.97844046       1.20290265      10.12479977       0.32019226       0.48590481       0.01911347
Cd       6.08529547       1.30898597      10.16826219       0.69092900       0.24314269       0.41035280
Cd      10.43316815       1.13299902       9.91060303       0.18439521       0.42425178       0.68070514
Cd       0.18472446       4.88397329      10.06511846       0.19743517      -0.32885719       0.32652418
Cd       4.33328780       4.88272589      10.03241830      -0.39181291       0.43152154       0.57168659
Cd       8.40270832       4.66963815      10.01556291       0.21827359       0.68808113       0.29515704
Cd      -2.06004894       8.45198535      10.02062741      -0.03228122      -0.25721183      -0.00652243
Cd       1.92866181       8.55132370      10.05498032       0.67872880      -0.42674957       0.25165163
Cd       6.10327090       8.25985788      10.14382297       0.29363900      -0.28289010      -0.51991150
S        0.02803673       2.40111096       2.55670784       0.04990225      -0.73590660       0.16960008
S        4.10582290       2.51914111       2.65721174       0.13227576      -0.45247574      -0.75718013
S        8.32459154       2.30698629       2.49297157      -0.57007875      -0.19395510       0.23533802
S       -2.12206099       5.93804150       2.47347957       0.18764318       0.48598479       0.33548252
S        2.07175990       6.01517003       2.22568879      -0.85174887       0.26878617       0.65569118
S        6.17234591       6.05834226       2.56465383       0.25863816      -0.19307530       0.34275746
S       -4.02666514       9.64504343       2.65950098      -0.08051241      -0.35470546      -0.97267490
S       -0.05095210       9.66298054       2.51525374      -0.16348566      -0.20181931       1.36089953
S        4.15858980       9.56796214       2.51901634      -0.04315137      -0.09209467       0.08848458
S        0.04769868       2.45492561       9.25639097      -0.02500263       0.27249368      -0.42549623
S        4.10818492       2.54109378       9.41493351      -0.56446731      -0.62434697      -0.47952900
S        8.38435296       2.34869768       9.34836954      -0.92153734      -0.31172389      -0.55130507
S       -1.86364000       5.94007837       9.25882773      -0.80546435       0.58877183      -0.19067532
S        2.21610911       6.09699355       9.21755478       0.07189173       0.11728663       0.23200624
S        6.35694168       5.90158513       9.09791445       0.28901821       0.47249254       0.36006371
S       -4.27468947       9.62345635       9.39357589       0.45916241      -0.77909843      -0.36573065
S       -0.00294391       9.77134081       9.24528215      -0.49468970      -0.40861341      -0.31364735
S        4.21434084       9.56033418       9.20778525      -0.54927676      -0.63692876       0.40924122
S        2.02104607       0.97552413       5.85297890       0.06350690       0.42025736       1.19408759
S        6.03016184       1.30763152       6.09169959      -0.36790853      -0.11806840      -0.53842591
S       10.19192063       1.21029966       5.98996681       0.56411574       0.01708332      -0.02625927
S        0.18626520       4.84080675       5.80539805       0.01534800      -0.69226441      -0.05084930
S        4.20416492       4.81394242       5.73426245      -0.39966572      -0.31353627       0.57811913
S        8.40912231       4.80912439       5.87053963      -0.55240774      -0.32824652      -0.16795403
S       -2.19828053       8.32600621       6.05120715       0.80598188      -0.08468763       0.15911507
S        1.92605610       8.40529843       5.93676660       0.56366569       0.03794581      -0.74696965
S        6.06642016       8.41776299       5.80337669       0.14140763      -0.33823484       0.67032886
S        2.07002266       1.15893547      12.60058257       0.09808960      -0.12092354       0.61721277
S        6.30437079       1.17498988      12.75542048      -0.61399363      -0.52797476      -0.66345582
S       10.27978888       1.20296546      12.53577033       0.86692155      -0.38418675      -0.08250410
S        0.01888443       4.73660420      12.63809293      -0.35624789      -0.23355457      -0.36658307
S        4.24746636       4.75885289      12.64503140       0.34921613      -0.64530887      -0.41572113
S        8.34301713       4.76346370      12.68169682      -0.38560263      -0.65922741      -1.16611954
S       -2.01644060       8.42174194      12.54492529      -0.63463949      -0.33717127       0.32180571
S        2.07676674       8.24038627      12.59487096      -0.19605771       0.86225823      -0.30321104
S        6.18527692       8.18511517      12.55313755      -0.24965925       0.11036650       0.94659332
