72
Lattice="12.39778545 0.0 0.0 -6.19889272 10.73679715 0.0 0.0 0.0 13.44794642" Properties=species:S:1:pos:R:3:forces:R:3 ref_energy_eV=-267.37312791 ref_gap_eV=2.1975 energy=-240.65327776 stress="-0.004116045618433231 -0.00030998898844998053 -0.000382922888797155 -0.00030998898844998053 -0.008923785832588777 -0.0018139087303301637 -0.000382922888797155 -0.0018139087303301637 -0.006853519079885953" free_energy=-240.65327776 pbc="T T T"
Cd       0.05117217       2.27425388       0.13347921      -0.32967851       1.21617881      -0.37112740
Cd       4.10139050       2.29459936      13.37131760       0.73915442       0.80957937       0.68667565
Cd       8.26657951       2.39521281       0.00044513       0.58880628       0.15315729      -0.49547085
Cd      -2.04776013       6.12940053       0.04027996      -0.79037603      -0.62237587       0.19662675
Cd       2.14584138       6.11944473      13.33183416      -0.45778333      -1.90323011       0.86616890
Cd       6.20676011       6.14053148      13.39002114       0.17309008      -2.13607954       0.62462818
Cd      -4.21423006       9.55419499       0.05709406       0.51866063       0.17655608      -0.24313650
Cd       0.05327236       9.57775979      13.35623613      -0.15513321      -0.39404217       0.73192374
Cd       4.03993208       9.49297721      13.42903067       0.94581552       0.81132359       0.50841535
Cd       0.02994164       2.20624432       6.73471664      -0.24861993       1.11416661       0.50553438
Cd       4.20946113       2.38965115       6.60588585      -0.50793095      -0.60702571      -0.01040332
Cd       8.38875616       2.37839652       6.76172321      -0.49266987       0.64363358       0.06200545
Cd      -2.13036887       5.93964321       6.71701121       1.54661509       0.09365820       0.90991016
Cd       2.16590130       5.97246410       6.53496797       0.35222562      -0.06725764       0.69643304
Cd       6.22968926       5.94997706       6.82163663      -0.86015411       0.45502877      -0.30766140
Cd      -3.98329335       9.59856878       6.78613594      -0.62882278       0.05461319      -0.01499231
Cd      -0.09716739       9.70598710       6.88742063       0.25013037      -0.31825224      -1.22547246
Cd       4.03024179       9.51869216       6.60063833       0.68664737      -0.05322242       0.41322463
Cd       2.03714751       1.25868300       3.36364743       0.43824277      -0.59563419       0.09251799
Cd       6.19913746       1.21543185       3.36393077      -0.54465351       0.55877286       0.01808875
Cd      10.45308922       1.12790602       3.41195474      -0.37683672       0.93539507      -0.29897743
Cd      -0.14123972       4.79152303       3.24901579       0.90309140      -0.12201563       0.67374622
Cd       4.06380098       4.83142096       3.35981073      -0.09441471       0.41432490      -0.33877407
Cd       8.26939127       4.76538301       3.37177241       0.10102620      -0.06325988      -0.08303004
Cd      -1.94084975       8.31175580       3.52358318      -0.00885695       1.67712535      -0.70885867
Cd       2.03092209       8.37599631       3.36638624       0.78123036      -0.34405280       0.15397933
Cd       6.19234038       8.22003628       3.40700616       0.35145597       0.57209236       0.34288421
Cd       2.10052480       1.22936542      10.06073886      -0.04872584      -0.39628918       0.08012349
Cd       6.15882246       0.98765199      10.21088142       0.00624849       2.01105569      -0.58012109
Cd      10.31112075       1.19767319      10.10931096       0.23211072       0.03147319      -0.24273938
Cd       0.16549141       4.81482939      10.24796077      -0.60996867      -0.40893729      -0.79472576
Cd       4.11404455       4.77625562      10.08304121      -0.22877809      -0.21485135      -0.07161988
Cd       8.27717745       4.76074364      10.03965894      -0.26921486      -0.10661451       0.24087273
Cd      -2.11270445       8.35457941      10.23992374      -0.03409532      -0.70739922      -2.04492925
Cd       1.97170506       8.32368406      10.06852576       0.53472639       0.40034081      -0.28403770
Cd       6.20407965       8.25753014      10.01385314      -0.52561429       0.74029651       0.42387453
S        0.07085173       2.42292749       2.52896984      -0.81012341       0.17375101       0.56945330
S        4.03857272       2.50979902       2.57016628       0.64648790      -0.78883679      -0.56389633
S        8.18778254       2.34662794       2.42046347       0.93592095       0.45184121       1.03770300
S       -1.99415806       6.15807014       2.61224154      -1.15032844      -1.21167901      -0.98614454
S        1.97100979       6.01976130       2.50358348       0.38434656      -0.02664143      -0.28399680
S        6.20172370       5.95118194       2.52877982      -0.04617580      -0.35305776      -0.27874082
S       -4.14193628       9.55786493       2.51534545       0.35101279      -0.11177397       0.61381499
S        0.19223201       9.66805271       2.56971792      -1.39003890      -0.41170430      -0.83765850
S        4.21759049       9.59619369       2.67710246      -0.34075421      -0.92865025      -0.99657495
S        0.02746829       2.38167263       9.31735360      -0.13582359       0.22751479      -0.29936061
S        4.07398557       2.40007314       9.03025635       0.48132589      -0.14140750       1.51352689
S        8.26796720       2.38350820       9.26124971      -0.48877680      -0.36849432       0.11806961
S       -2.05660279       5.87054891       9.42840190       0.54121076       0.65858695      -0.98770700
S        2.03292452       6.00582075       9.22541308       0.53424059      -0.04509653      -0.48428854
S        6.16647574       5.97818101       9.29694123       0.03771426      -0.86291560      -0.10918391
S       -4.14137577       9.37842922       9.30861391       0.20873213       1.13031208      -0.18339708
S       -0.12040382       9.60545504       9.27890215       0.28770192      -1.50409985       0.11987144
S        4.17523166       9.58795438       9.19104269      -0.48833556      -0.36548465       0.22212278
S        2.05058380       1.23176123       5.88597384       0.66941351      -0.55264945      -0.15821133
S        6.25178949       1.30145872       5.87699303       0.47978117      -0.55125813      -0.02652827
S       10.32861130       1.19504246       5.88945014       0.17566847       0.03078327      -0.06052876
S        0.16003861       4.87802639       5.83854885      -1.56341239      -0.99075936      -0.08133863
S        4.13781526       4.62151314       5.81928090       0.53078525       1.56712386       0.21878416
S        8.26059021       4.97936480       5.95335612      -0.25518301      -1.62048974      -0.80637109
S       -2.07606868       8.32066026       5.90528066       0.61067222       0.44151942       0.88306430
S        2.05547584       8.32367665       5.88154073      -0.73686521       0.56385293       0.13763469
S        6.26056440       8.41041559       5.97381489      -0.17469270      -0.20055096      -0.11387896
S        2.04024727       1.31011666      12.71416138       0.28754600      -1.21048545      -1.13842221
S        6.27092597       1.16767479      12.60946118      -0.43964748       0.37489418       0.37459079
S       10.49880952       1.29108107      12.58969942      -1.20742562      -0.85533568       0.29015259
S       -0.11391940       4.97613420      12.61403012       1.07299849      -0.93764653       1.04002609
S        4.14912892       4.81021547      12.61625158       0.10507349      -0.39978431       0.00258700
S        8.22609244       4.72461614      12.56416836       0.15008550       0.63145220       0.49575439
S       -1.99493608       8.35368256      12.50980329      -0.33845582       0.98059801       2.36636842
S        2.10338869       8.31472946      12.61991090      -0.45515046       1.49300809      -0.81022100
S        6.22561727       8.30165162      12.64735601      -0.40647841       1.90533108      -0.90863113
