72
Lattice="12.39778545 0.0 0.0 -6.19889272 10.73679715 0.0 0.0 0.0 13.44794642" Properties=species:S:1:pos:R:3:forces:R:3 ref_energy_eV=-265.3545731 ref_gap_eV=2.0397 energy=-238.73811337 stress="-0.005959867698751032 0.00015135327581981405 -0.001732267862337291 0.00015135327581981405 -0.002609132030595163 -0.0016593980747718574 -0.001732267862337291 -0.0016593980747718574 -0.01683514282996583" free_energy=-238.73811337 pbc="T T T"
Cd      -0.00528598       2.36049935      13.43724629       0.37083164      -0.04526083      -0.15494353
Cd       4.08220140       2.38139831      13.23867647      -0.44239176       0.25217158       0.91345634
Cd       8.23082988       2.32278109       0.05149730      -0.14598051       0.30178567       0.27264069
Cd      -2.18075068       5.81870833      13.35172636       1.77628107       1.25982289       1.06800891
Cd       2.14821363       6.04994490       0.04949907       0.06481764      -0.76239625      -0.45965061
Cd       6.25225478       6.03199276       0.01790029       0.10350592      -0.28607267       0.47300964
Cd      -4.03900156       9.50405705       0.11405930       0.00426663      -0.86232606      -0.18751019
Cd      -0.01852886       9.52292493      13.43503074      -0.07794016       0.27689320       0.38787261
Cd       4.18466854       9.56372970      13.33133148      -0.34438180       0.15774169       0.64112154
Cd      -0.02904541       2.41048698       6.71851563       0.33420465      -0.28379167       0.42754358
Cd       4.10136341       2.34278836       6.66601417       1.00887292       0.52424193       0.16296288
Cd       8.19450263       2.37669334       6.91414183       0.12688576       0.02227761      -1.33241221
Cd      -2.12330988       5.87583775       6.77148803      -1.36953139       0.77223706      -0.00323953
Cd       2.04627073       6.01709782       6.70490631      -0.14870612      -0.37047285       0.33898834
Cd       6.23463151       5.89332091       6.68284025      -0.44222328       0.42448350       0.06614605
Cd      -4.07216290       9.43309047       6.88766323       0.05216949      -0.21823234      -2.97918222
Cd       0.19047877       9.42357079       6.79354952      -0.35938884       0.54606076      -0.74257867
Cd       4.06939777       9.57416565       6.92879350       0.57942377       0.20213691      -4.06345392
Cd       2.07337985       1.22833254       3.38576096       0.15954685      -0.01579450      -0.00258847
Cd       6.19349256       1.16739037       3.34720395      -0.51123261       0.12361062      -0.73930320
Cd      10.28192186       1.16616520       3.33874237       0.88312576      -0.53976021       0.20289498
Cd       0.02496765       4.77582465       3.56833741      -0.22222220      -0.30047621      -1.23980752
Cd       4.12793553       4.77533569       3.36111114      -0.57654002       0.19083534       0.47578210
Cd       8.25296315       4.78786747       3.36151915      -0.15906329      -0.27723918      -1.26184160
Cd      -2.13860094       8.21895756       3.51093660      -0.22931574       0.65169487      -3.66976029
Cd       2.10362208       8.15271066       3.43194982      -0.39943808       1.33542203      -2.12273941
Cd       6.02922215       8.39345091       3.39859124       0.71732815      -0.07360005      -0.70671718
Cd       2.16850918       1.03519066      10.20533239      -0.59453457       1.36856669       0.36423475
Cd       6.24167538       1.16283035      10.13652382      -0.29870711       0.61415169      -0.23486218
Cd      10.34482085       1.19845021      10.06034955       1.23614513      -0.54010716       0.67909249
Cd      -0.03682148       4.78397742      10.14269495       0.09539749      -0.24993617       0.34694442
Cd       4.23952192       4.72893963       9.90576096      -0.93133349      -0.70071906       0.65204198
Cd       8.34433384       4.70180517      10.10855828      -0.45713565       0.00130913      -0.75120474
Cd      -2.04875382       8.51303843       9.95102689      -0.14803864      -0.50157262       0.66124709
Cd       1.86025318       8.41064739      10.07073284       3.40920052      -2.66525020       1.29536349
Cd       6.19752439       8.34806249      10.08531727      -0.10077778       0.39026185       0.20114318
S       -0.07401038       2.32197228       2.45421674       0.52158974       0.51256887       0.84026655
S        4.18938943       2.54150929       2.57470913      -0.47661259      -1.45769403      -0.85354067
S        8.29019110       2.17975943       2.61302623      -0.64350740       1.70522321      -1.05613982
S       -2.07205577       5.95710253       2.54991098       0.07465121      -0.51363723      -0.57841127
S        2.06472725       5.96484108       2.53488707      -0.39241337      -1.03165918      -0.18437332
S        6.04442618       5.97271373       2.64207177       1.44847437       0.37244619      -1.01285679
S       -4.19690143       9.53972286       2.49018582       0.15174999      -0.11546542       1.26328555
S       -0.01581914       9.61400206       2.52101390      -0.03467166      -1.11534222      -0.10483142
S        4.08632974       9.51068680       2.54254971      -0.53881529       0.19339506      -0.72948537
S        0.01710262       2.40691227       9.39783929       0.32922219      -0.46275558      -0.54609560
S        4.09176672       2.25063432       9.26380172       0.74794640       0.41557281      -0.20754743
S        8.37940624       2.20028851       9.29439473      -1.37705569       1.30970562       0.20453821
S       -2.04444050       5.97079871       9.30470944      -0.36748188       0.58116032      -0.36698697
S        2.03854673       5.78351547       9.27818094       0.18896561       1.10320528      -0.28789479
S        6.09930621       6.02568844       9.26515203       1.59246186      -0.10316117      -0.62725339
S       -4.13966649       9.68276674       9.13006284      -0.23802730      -1.47864504       2.00849604
S        0.17571239       9.56499481       9.34997926      -3.25705894       1.48033051      -1.94585354
S        4.06352098       9.56052712       9.11145088       0.18930323      -0.39299615       3.89290259
S        2.16024332       1.16177535       6.03008190      -1.36708756      -0.41768109      -0.81482712
S        6.25984166       1.26162488       5.71742468      -0.20083373      -0.55883533       2.05704069
S       10.31436352       1.31123629       5.82773011      -0.11439539      -0.61847828       0.71183933
S       -0.18913131       4.83124714       5.96635585       1.63626653      -0.55656043       0.16001028
S        4.08065161       4.80640906       5.87743480      -0.01031232      -0.28841751       0.40308906
S        8.12661447       4.68835926       5.71772780       0.80847088      -0.12077304       1.83628087
S       -1.93596286       8.34214770       5.68412891       0.08160117       0.12784404       4.57155549
S        2.19478852       8.30030887       5.69466363      -0.08196498       0.46018150       2.72377185
S        6.30273801       8.27100890       5.76200381      -0.17949628       0.45200277       1.67967747
S        2.07245752       0.97012170      12.68806954      -0.23640828       1.54784458      -0.38897342
S        6.12644540       1.26447647      12.57167218       0.74813723      -0.67228813       0.39380739
S       10.31205821       1.25772119      12.65987578      -0.06902236      -0.47348563      -0.56651424
S       -0.01846669       4.73656394      12.68382173       0.60101125       0.35531581      -0.07965712
S        4.35990541       4.73553245      12.52473925      -1.04574137       0.37518710      -0.05793009
S        8.35926344       4.81257273      12.51744831      -2.03734155      -1.19527819       0.38057217
S       -2.06213512       8.34139591      12.60898673       0.12108430      -0.37663021      -0.65866049
S        2.05795707       8.35649700      12.62211637       0.22688311       0.21202650      -0.36439223
S        6.23176756       8.38130040      12.66830872       0.23730850       0.02307669      -0.67360807
