  72  72   0   0
  0.2550973E+02  0.1250651E-08  0.1250651E-08  0.1355924E-08  0.5000000E-15
  1.000000000000000E-004
  CAR 
 unknown system                          
     10.17793822    -15.97289528  301      2.09660178      1.00000000
    -15.973  0.0000E+00  0.0000E+00
    -15.886  0.0000E+00  0.0000E+00
    -15.799  0.0000E+00  0.0000E+00
    -15.711  0.0000E+00  0.0000E+00
    -15.624  0.0000E+00  0.0000E+00
    -15.537  0.0000E+00  0.0000E+00
    -15.450  0.0000E+00  0.0000E+00
    -15.363  0.0000E+00  0.0000E+00
    -15.276  0.0000E+00  0.0000E+00
    -15.188  0.0000E+00  0.0000E+00
    -15.101  0.0000E+00  0.0000E+00
    -15.014  0.9213E-09  0.8031E-10
    -14.927  0.6277E-03  0.5472E-04
    -14.840  0.1338E+01  0.1167E+00
    -14.753  0.1736E+02  0.1630E+01
    -14.665  0.4235E+01  0.1999E+01
    -14.578  0.8874E-02  0.2000E+01
    -14.491  0.8279E-03  0.2000E+01
    -14.404  0.1620E+01  0.2141E+01
    -14.317  0.2970E+02  0.4730E+01
    -14.230  0.3447E+02  0.7735E+01
    -14.142  0.1040E+02  0.8642E+01
    -14.055  0.1506E+02  0.9955E+01
    -13.968  0.3798E+01  0.1029E+02
    -13.881  0.2916E+02  0.1283E+02
    -13.794  0.3467E+02  0.1585E+02
    -13.706  0.1447E+02  0.1711E+02
    -13.619  0.3130E+02  0.1984E+02
    -13.532  0.1877E+02  0.2148E+02
    -13.445  0.3737E+02  0.2473E+02
    -13.358  0.2619E+02  0.2702E+02
    -13.271  0.1115E+02  0.2799E+02
    -13.183  0.1314E+01  0.2810E+02
    -13.096  0.1712E+02  0.2959E+02
    -13.009  0.6756E+01  0.3018E+02
    -12.922  0.1797E+02  0.3175E+02
    -12.835  0.1135E+02  0.3274E+02
    -12.748  0.2257E+02  0.3471E+02
    -12.660  0.1783E+02  0.3626E+02
    -12.573  0.1817E+02  0.3784E+02
    -12.486  0.7555E+01  0.3850E+02
    -12.399  0.1667E+02  0.3996E+02
    -12.312  0.1454E+02  0.4122E+02
    -12.225  0.8829E+01  0.4199E+02
    -12.137  0.2389E+00  0.4201E+02
    -12.050  0.1158E+02  0.4302E+02
    -11.963  0.1121E+02  0.4400E+02
    -11.876  0.1227E+02  0.4507E+02
    -11.789  0.3350E+02  0.4799E+02
    -11.702  0.2903E+02  0.5052E+02
    -11.614  0.2351E+02  0.5257E+02
    -11.527  0.1861E+02  0.5419E+02
    -11.440  0.1849E+02  0.5580E+02
    -11.353  0.6899E+01  0.5641E+02
    -11.266  0.3382E+02  0.5935E+02
    -11.179  0.2014E+02  0.6111E+02
    -11.091  0.1014E+02  0.6199E+02
    -11.004  0.6533E+01  0.6256E+02
    -10.917  0.1581E+02  0.6394E+02
    -10.830  0.3125E+01  0.6421E+02
    -10.743  0.1846E+02  0.6582E+02
    -10.656  0.1775E+02  0.6737E+02
    -10.568  0.2003E+02  0.6912E+02
    -10.481  0.1004E+02  0.6999E+02
    -10.394  0.1021E+00  0.7000E+02
    -10.307  0.4301E-05  0.7000E+02
    -10.220  0.1344E-08  0.7000E+02
    -10.133  0.7988E-03  0.7000E+02
    -10.045  0.1502E+01  0.7013E+02
     -9.958  0.2268E+02  0.7211E+02
     -9.871  0.5938E+02  0.7728E+02
     -9.784  0.5469E+02  0.8205E+02
     -9.697  0.7282E+02  0.8840E+02
     -9.610  0.7867E+02  0.9526E+02
     -9.522  0.9350E+02  0.1034E+03
     -9.435  0.1019E+03  0.1123E+03
     -9.348  0.1173E+03  0.1225E+03
     -9.261  0.1197E+03  0.1330E+03
     -9.174  0.1176E+03  0.1432E+03
     -9.087  0.1532E+03  0.1566E+03
     -8.999  0.1146E+03  0.1665E+03
     -8.912  0.1387E+03  0.1786E+03
     -8.825  0.1325E+03  0.1902E+03
     -8.738  0.1346E+03  0.2019E+03
     -8.651  0.1625E+03  0.2161E+03
     -8.563  0.1768E+03  0.2315E+03
     -8.476  0.1641E+03  0.2458E+03
     -8.389  0.1223E+03  0.2565E+03
     -8.302  0.1173E+03  0.2667E+03
     -8.215  0.1278E+03  0.2778E+03
     -8.128  0.1339E+03  0.2895E+03
     -8.040  0.1673E+03  0.3041E+03
     -7.953  0.1705E+03  0.3190E+03
     -7.866  0.1679E+03  0.3336E+03
     -7.779  0.1582E+03  0.3474E+03
     -7.692  0.1656E+03  0.3618E+03
     -7.605  0.1458E+03  0.3745E+03
     -7.517  0.1372E+03  0.3865E+03
     -7.430  0.1512E+03  0.3997E+03
     -7.343  0.1368E+03  0.4116E+03
     -7.256  0.8258E+02  0.4188E+03
     -7.169  0.8285E+02  0.4260E+03
     -7.082  0.2290E+02  0.4280E+03
     -6.994  0.2968E+02  0.4306E+03
     -6.907  0.1614E+02  0.4320E+03
     -6.820  0.1062E+00  0.4320E+03
     -6.733  0.2808E-05  0.4320E+03
     -6.646  0.2140E-12  0.4320E+03
     -6.559  0.0000E+00  0.4320E+03
     -6.471  0.0000E+00  0.4320E+03
     -6.384  0.0000E+00  0.4320E+03
     -6.297  0.0000E+00  0.4320E+03
     -6.210  0.0000E+00  0.4320E+03
     -6.123  0.0000E+00  0.4320E+03
     -6.036  0.0000E+00  0.4320E+03
     -5.948  0.5223E-08  0.4320E+03
     -5.861  0.1886E-02  0.4320E+03
     -5.774  0.2208E+01  0.4322E+03
     -5.687  0.1792E+02  0.4338E+03
     -5.600  0.2806E+01  0.4340E+03
     -5.513  0.3273E-02  0.4340E+03
     -5.425  0.1045E-04  0.4340E+03
     -5.338  0.1663E+00  0.4340E+03
     -5.251  0.1150E+02  0.4350E+03
     -5.164  0.1113E+02  0.4360E+03
     -5.077  0.1481E+00  0.4360E+03
     -4.990  0.6152E+00  0.4361E+03
     -4.902  0.1554E+02  0.4374E+03
     -4.815  0.6762E+01  0.4380E+03
     -4.728  0.4348E-01  0.4380E+03
     -4.641  0.5108E+01  0.4384E+03
     -4.554  0.2982E+02  0.4410E+03
     -4.467  0.2007E+02  0.4428E+03
     -4.379  0.1687E+02  0.4443E+03
     -4.292  0.3416E+02  0.4472E+03
     -4.205  0.3236E+02  0.4501E+03
     -4.118  0.3589E+02  0.4532E+03
     -4.031  0.2414E+02  0.4553E+03
     -3.944  0.2576E+02  0.4575E+03
     -3.856  0.5750E+02  0.4626E+03
     -3.769  0.2128E+02  0.4644E+03
     -3.682  0.4523E+02  0.4684E+03
     -3.595  0.2632E+02  0.4706E+03
     -3.508  0.3740E+02  0.4739E+03
     -3.420  0.6023E+02  0.4792E+03
     -3.333  0.6641E+02  0.4849E+03
     -3.246  0.3466E+02  0.4880E+03
     -3.159  0.4185E+02  0.4916E+03
     -3.072  0.6432E+02  0.4972E+03
     -2.985  0.8273E+02  0.5044E+03
     -2.897  0.4098E+02  0.5080E+03
     -2.810  0.4041E+02  0.5115E+03
     -2.723  0.3518E+02  0.5146E+03
     -2.636  0.3119E+02  0.5173E+03
     -2.549  0.4185E+02  0.5210E+03
     -2.462  0.6119E+02  0.5263E+03
     -2.374  0.5594E+02  0.5312E+03
     -2.287  0.1418E+02  0.5324E+03
     -2.200  0.3223E+02  0.5352E+03
     -2.113  0.3209E+02  0.5380E+03
     -2.026  0.2806E+02  0.5405E+03
     -1.939  0.3844E+02  0.5438E+03
     -1.851  0.3591E+02  0.5469E+03
     -1.764  0.1252E+02  0.5480E+03
     -1.677  0.1524E+02  0.5494E+03
     -1.590  0.7644E+01  0.5500E+03
     -1.503  0.1406E+02  0.5513E+03
     -1.416  0.9150E+01  0.5521E+03
     -1.328  0.1652E+02  0.5535E+03
     -1.241  0.2339E+02  0.5555E+03
     -1.154  0.2323E+02  0.5576E+03
     -1.067  0.3385E+02  0.5605E+03
     -0.980  0.2861E+02  0.5630E+03
     -0.893  0.3234E+02  0.5658E+03
     -0.805  0.1413E+02  0.5671E+03
     -0.718  0.1083E+02  0.5680E+03
     -0.631  0.9644E+01  0.5688E+03
     -0.544  0.2451E+02  0.5710E+03
     -0.457  0.1501E+02  0.5723E+03
     -0.370  0.1828E+02  0.5739E+03
     -0.282  0.1985E+02  0.5756E+03
     -0.195  0.2763E+02  0.5780E+03
     -0.108  0.2509E+02  0.5802E+03
     -0.021  0.2589E+02  0.5825E+03
      0.066  0.3153E+02  0.5852E+03
      0.153  0.1627E+02  0.5866E+03
      0.241  0.1652E+02  0.5881E+03
      0.328  0.3708E+02  0.5913E+03
      0.415  0.3403E+02  0.5943E+03
      0.502  0.3836E+02  0.5976E+03
      0.589  0.4219E+02  0.6013E+03
      0.676  0.2169E+02  0.6032E+03
      0.764  0.1214E+02  0.6042E+03
      0.851  0.2024E+02  0.6060E+03
      0.938  0.2611E+02  0.6083E+03
      1.025  0.3369E+02  0.6112E+03
      1.112  0.2849E+02  0.6137E+03
      1.199  0.1306E+02  0.6148E+03
      1.287  0.3420E+02  0.6178E+03
      1.374  0.3664E+02  0.6210E+03
      1.461  0.4558E+02  0.6250E+03
      1.548  0.5489E+02  0.6298E+03
      1.635  0.2540E+02  0.6320E+03
      1.723  0.2390E+02  0.6341E+03
      1.810  0.4524E+02  0.6380E+03
      1.897  0.5116E+02  0.6425E+03
      1.984  0.3617E+02  0.6456E+03
      2.071  0.2651E+02  0.6479E+03
      2.158  0.5645E+01  0.6484E+03
      2.246  0.2791E+02  0.6509E+03
      2.333  0.2602E+02  0.6531E+03
      2.420  0.3597E+02  0.6563E+03
      2.507  0.5077E+02  0.6607E+03
      2.594  0.3813E+02  0.6640E+03
      2.681  0.4841E+02  0.6682E+03
      2.769  0.3593E+02  0.6714E+03
      2.856  0.3792E+02  0.6747E+03
      2.943  0.3247E+02  0.6775E+03
      3.030  0.5025E+02  0.6819E+03
      3.117  0.4016E+02  0.6854E+03
      3.204  0.3554E+02  0.6885E+03
      3.292  0.4485E+02  0.6924E+03
      3.379  0.3017E+02  0.6950E+03
      3.466  0.4207E+02  0.6987E+03
      3.553  0.3299E+02  0.7016E+03
      3.640  0.2690E+02  0.7039E+03
      3.727  0.1850E+02  0.7055E+03
      3.815  0.3249E+02  0.7083E+03
      3.902  0.3777E+02  0.7116E+03
      3.989  0.2012E+02  0.7134E+03
      4.076  0.2276E+02  0.7154E+03
      4.163  0.2669E+02  0.7177E+03
      4.250  0.1177E+02  0.7187E+03
      4.338  0.3915E+02  0.7221E+03
      4.425  0.2470E+02  0.7243E+03
      4.512  0.2566E+02  0.7265E+03
      4.599  0.2157E+02  0.7284E+03
      4.686  0.2392E+02  0.7305E+03
      4.773  0.1892E+02  0.7321E+03
      4.861  0.1858E+02  0.7338E+03
      4.948  0.6829E+01  0.7344E+03
      5.035  0.4082E+02  0.7379E+03
      5.122  0.4619E+02  0.7419E+03
      5.209  0.3608E+02  0.7451E+03
      5.296  0.1125E+02  0.7461E+03
      5.384  0.1678E+02  0.7475E+03
      5.471  0.1709E+02  0.7490E+03
      5.558  0.3161E+02  0.7518E+03
      5.645  0.1170E+02  0.7528E+03
      5.732  0.1344E+02  0.7540E+03
      5.819  0.3075E+00  0.7540E+03
      5.907  0.3712E-04  0.7540E+03
      5.994  0.1008E+00  0.7540E+03
      6.081  0.1076E+02  0.7549E+03
      6.168  0.2896E+02  0.7575E+03
      6.255  0.1541E+02  0.7588E+03
      6.342  0.2830E+02  0.7613E+03
      6.430  0.1112E+02  0.7623E+03
      6.517  0.2460E+02  0.7644E+03
      6.604  0.1836E+02  0.7660E+03
      6.691  0.1602E+02  0.7674E+03
      6.778  0.1056E+02  0.7683E+03
      6.865  0.1845E+02  0.7699E+03
      6.953  0.2262E+02  0.7719E+03
      7.040  0.2309E+02  0.7739E+03
      7.127  0.3793E+01  0.7742E+03
      7.214  0.2724E+02  0.7766E+03
      7.301  0.1805E+02  0.7782E+03
      7.389  0.3472E+02  0.7812E+03
      7.476  0.3102E+02  0.7839E+03
      7.563  0.1730E+02  0.7854E+03
      7.650  0.1941E+02  0.7871E+03
      7.737  0.4036E+02  0.7906E+03
      7.824  0.2200E+02  0.7926E+03
      7.912  0.2848E+02  0.7950E+03
      7.999  0.1608E+02  0.7964E+03
      8.086  0.3600E+02  0.7996E+03
      8.173  0.2026E+02  0.8013E+03
      8.260  0.4692E+02  0.8054E+03
      8.347  0.4827E+02  0.8096E+03
      8.435  0.9718E+01  0.8105E+03
      8.522  0.3097E+02  0.8132E+03
      8.609  0.2475E+02  0.8153E+03
      8.696  0.4165E+02  0.8190E+03
      8.783  0.3561E+02  0.8221E+03
      8.870  0.3817E+02  0.8254E+03
      8.958  0.3973E+02  0.8289E+03
      9.045  0.3394E+02  0.8318E+03
      9.132  0.2017E+01  0.8320E+03
      9.219  0.7826E-03  0.8320E+03
      9.306  0.1028E-08  0.8320E+03
      9.393  0.0000E+00  0.8320E+03
      9.481  0.0000E+00  0.8320E+03
      9.568  0.0000E+00  0.8320E+03
      9.655  0.0000E+00  0.8320E+03
      9.742  0.0000E+00  0.8320E+03
      9.829  0.0000E+00  0.8320E+03
      9.916  0.0000E+00  0.8320E+03
     10.004  0.0000E+00  0.8320E+03
     10.091  0.0000E+00  0.8320E+03
     10.178  0.0000E+00  0.8320E+03
