  72  72   0   0
  0.2550973E+02  0.1250651E-08  0.1250651E-08  0.1355924E-08  0.5000000E-15
  1.000000000000000E-004
  CAR 
 unknown system                          
     10.18341508    -14.03563767  301      0.66734561      1.00000000
    -14.036  0.0000E+00  0.0000E+00
    -13.955  0.0000E+00  0.0000E+00
    -13.874  0.0000E+00  0.0000E+00
    -13.793  0.0000E+00  0.0000E+00
    -13.713  0.0000E+00  0.0000E+00
    -13.632  0.0000E+00  0.0000E+00
    -13.551  0.0000E+00  0.0000E+00
    -13.471  0.0000E+00  0.0000E+00
    -13.390  0.0000E+00  0.0000E+00
    -13.309  0.0000E+00  0.0000E+00
    -13.228  0.1375E-14  0.1110E-15
    -13.148  0.2162E-07  0.1746E-08
    -13.067  0.2312E-02  0.1866E-03
    -12.986  0.1809E+01  0.1462E+00
    -12.905  0.1793E+02  0.1594E+01
    -12.825  0.5045E+01  0.2001E+01
    -12.744  0.9040E+01  0.2731E+01
    -12.663  0.6525E+02  0.7998E+01
    -12.582  0.1164E+03  0.1739E+02
    -12.502  0.1741E+03  0.3144E+02
    -12.421  0.2589E+03  0.5235E+02
    -12.340  0.2286E+03  0.7080E+02
    -12.260  0.1481E+02  0.7200E+02
    -12.179  0.1317E-01  0.7200E+02
    -12.098  0.9315E-07  0.7200E+02
    -12.017  0.0000E+00  0.7200E+02
    -11.937  0.0000E+00  0.7200E+02
    -11.856  0.0000E+00  0.7200E+02
    -11.775  0.0000E+00  0.7200E+02
    -11.694  0.0000E+00  0.7200E+02
    -11.614  0.0000E+00  0.7200E+02
    -11.533  0.0000E+00  0.7200E+02
    -11.452  0.0000E+00  0.7200E+02
    -11.372  0.0000E+00  0.7200E+02
    -11.291  0.0000E+00  0.7200E+02
    -11.210  0.0000E+00  0.7200E+02
    -11.129  0.0000E+00  0.7200E+02
    -11.049  0.0000E+00  0.7200E+02
    -10.968  0.0000E+00  0.7200E+02
    -10.887  0.0000E+00  0.7200E+02
    -10.806  0.0000E+00  0.7200E+02
    -10.726  0.0000E+00  0.7200E+02
    -10.645  0.0000E+00  0.7200E+02
    -10.564  0.0000E+00  0.7200E+02
    -10.484  0.0000E+00  0.7200E+02
    -10.403  0.0000E+00  0.7200E+02
    -10.322  0.0000E+00  0.7200E+02
    -10.241  0.0000E+00  0.7200E+02
    -10.161  0.0000E+00  0.7200E+02
    -10.080  0.0000E+00  0.7200E+02
     -9.999  0.0000E+00  0.7200E+02
     -9.918  0.0000E+00  0.7200E+02
     -9.838  0.0000E+00  0.7200E+02
     -9.757  0.0000E+00  0.7200E+02
     -9.676  0.0000E+00  0.7200E+02
     -9.595  0.0000E+00  0.7200E+02
     -9.515  0.0000E+00  0.7200E+02
     -9.434  0.0000E+00  0.7200E+02
     -9.353  0.0000E+00  0.7200E+02
     -9.273  0.0000E+00  0.7200E+02
     -9.192  0.0000E+00  0.7200E+02
     -9.111  0.0000E+00  0.7200E+02
     -9.030  0.0000E+00  0.7200E+02
     -8.950  0.0000E+00  0.7200E+02
     -8.869  0.0000E+00  0.7200E+02
     -8.788  0.0000E+00  0.7200E+02
     -8.707  0.0000E+00  0.7200E+02
     -8.627  0.0000E+00  0.7200E+02
     -8.546  0.1305E-07  0.7200E+02
     -8.465  0.2335E-02  0.7200E+02
     -8.385  0.3371E+01  0.7227E+02
     -8.304  0.9639E+02  0.8005E+02
     -8.223  0.4311E+03  0.1149E+03
     -8.142  0.6704E+03  0.1690E+03
     -8.062  0.5627E+03  0.2144E+03
     -7.981  0.4547E+03  0.2511E+03
     -7.900  0.7233E+03  0.3095E+03
     -7.819  0.7194E+03  0.3676E+03
     -7.739  0.1317E+03  0.3782E+03
     -7.658  0.1515E+03  0.3904E+03
     -7.577  0.1402E+03  0.4018E+03
     -7.496  0.1175E+02  0.4027E+03
     -7.416  0.1727E+02  0.4041E+03
     -7.335  0.1221E+03  0.4140E+03
     -7.254  0.2095E+03  0.4309E+03
     -7.174  0.1376E+02  0.4320E+03
     -7.093  0.1498E-01  0.4320E+03
     -7.012  0.1358E-06  0.4320E+03
     -6.931  0.0000E+00  0.4320E+03
     -6.851  0.0000E+00  0.4320E+03
     -6.770  0.0000E+00  0.4320E+03
     -6.689  0.0000E+00  0.4320E+03
     -6.608  0.0000E+00  0.4320E+03
     -6.528  0.0000E+00  0.4320E+03
     -6.447  0.0000E+00  0.4320E+03
     -6.366  0.0000E+00  0.4320E+03
     -6.286  0.0000E+00  0.4320E+03
     -6.205  0.0000E+00  0.4320E+03
     -6.124  0.0000E+00  0.4320E+03
     -6.043  0.0000E+00  0.4320E+03
     -5.963  0.0000E+00  0.4320E+03
     -5.882  0.0000E+00  0.4320E+03
     -5.801  0.0000E+00  0.4320E+03
     -5.720  0.0000E+00  0.4320E+03
     -5.640  0.0000E+00  0.4320E+03
     -5.559  0.0000E+00  0.4320E+03
     -5.478  0.0000E+00  0.4320E+03
     -5.398  0.0000E+00  0.4320E+03
     -5.317  0.0000E+00  0.4320E+03
     -5.236  0.0000E+00  0.4320E+03
     -5.155  0.0000E+00  0.4320E+03
     -5.075  0.0000E+00  0.4320E+03
     -4.994  0.0000E+00  0.4320E+03
     -4.913  0.0000E+00  0.4320E+03
     -4.832  0.0000E+00  0.4320E+03
     -4.752  0.0000E+00  0.4320E+03
     -4.671  0.0000E+00  0.4320E+03
     -4.590  0.0000E+00  0.4320E+03
     -4.509  0.0000E+00  0.4320E+03
     -4.429  0.0000E+00  0.4320E+03
     -4.348  0.8251E-14  0.4320E+03
     -4.267  0.8611E-07  0.4320E+03
     -4.187  0.5578E-02  0.4320E+03
     -4.106  0.2725E+01  0.4322E+03
     -4.025  0.1845E+02  0.4337E+03
     -3.944  0.3582E+01  0.4340E+03
     -3.864  0.1046E-01  0.4340E+03
     -3.783  0.8163E+00  0.4341E+03
     -3.702  0.4447E+02  0.4377E+03
     -3.621  0.9173E+02  0.4451E+03
     -3.541  0.1035E+03  0.4534E+03
     -3.460  0.7272E+01  0.4540E+03
     -3.379  0.8137E+01  0.4547E+03
     -3.299  0.7320E+02  0.4606E+03
     -3.218  0.1039E+03  0.4690E+03
     -3.137  0.1987E+03  0.4850E+03
     -3.056  0.1243E+02  0.4860E+03
     -2.976  0.8911E-02  0.4860E+03
     -2.895  0.5149E-04  0.4860E+03
     -2.814  0.3418E+00  0.4860E+03
     -2.733  0.2093E+02  0.4877E+03
     -2.653  0.4113E+02  0.4910E+03
     -2.572  0.1106E+03  0.5000E+03
     -2.491  0.2506E+02  0.5020E+03
     -2.410  0.8861E-01  0.5020E+03
     -2.330  0.4955E-03  0.5020E+03
     -2.249  0.1954E+01  0.5022E+03
     -2.168  0.7655E+02  0.5083E+03
     -2.088  0.1062E+03  0.5169E+03
     -2.007  0.1004E+03  0.5250E+03
     -1.926  0.1216E+02  0.5260E+03
     -1.845  0.2543E-01  0.5260E+03
     -1.765  0.4202E-06  0.5260E+03
     -1.684  0.3097E-08  0.5260E+03
     -1.603  0.1039E-02  0.5260E+03
     -1.522  0.2414E+01  0.5262E+03
     -1.442  0.5929E+02  0.5310E+03
     -1.361  0.3698E+02  0.5340E+03
     -1.280  0.2271E+02  0.5358E+03
     -1.200  0.1463E+03  0.5476E+03
     -1.119  0.2955E+02  0.5500E+03
     -1.038  0.3610E+01  0.5503E+03
     -0.957  0.1476E+03  0.5622E+03
     -0.877  0.1431E+03  0.5737E+03
     -0.796  0.8092E+01  0.5744E+03
     -0.715  0.1863E+03  0.5894E+03
     -0.634  0.1980E+03  0.6054E+03
     -0.554  0.7193E+01  0.6060E+03
     -0.473  0.6126E+00  0.6060E+03
     -0.392  0.5792E+02  0.6107E+03
     -0.312  0.1284E+03  0.6211E+03
     -0.231  0.1255E+02  0.6221E+03
     -0.150  0.6820E+02  0.6276E+03
     -0.069  0.7735E+02  0.6339E+03
      0.011  0.3307E+02  0.6365E+03
      0.092  0.6426E+02  0.6417E+03
      0.173  0.3526E+01  0.6420E+03
      0.254  0.2232E-02  0.6420E+03
      0.334  0.4219E+00  0.6420E+03
      0.415  0.2775E+02  0.6443E+03
      0.496  0.4414E+02  0.6478E+03
      0.577  0.2010E+01  0.6480E+03
      0.657  0.1104E-02  0.6480E+03
      0.738  0.4501E-08  0.6480E+03
      0.819  0.0000E+00  0.6480E+03
      0.899  0.0000E+00  0.6480E+03
      0.980  0.0000E+00  0.6480E+03
      1.061  0.0000E+00  0.6480E+03
      1.142  0.0000E+00  0.6480E+03
      1.222  0.0000E+00  0.6480E+03
      1.303  0.0000E+00  0.6480E+03
      1.384  0.0000E+00  0.6480E+03
      1.465  0.0000E+00  0.6480E+03
      1.545  0.0000E+00  0.6480E+03
      1.626  0.0000E+00  0.6480E+03
      1.707  0.0000E+00  0.6480E+03
      1.787  0.0000E+00  0.6480E+03
      1.868  0.0000E+00  0.6480E+03
      1.949  0.0000E+00  0.6480E+03
      2.030  0.0000E+00  0.6480E+03
      2.110  0.0000E+00  0.6480E+03
      2.191  0.0000E+00  0.6480E+03
      2.272  0.0000E+00  0.6480E+03
      2.353  0.0000E+00  0.6480E+03
      2.433  0.9272E-09  0.6480E+03
      2.514  0.2931E-03  0.6480E+03
      2.595  0.6428E+00  0.6481E+03
      2.676  0.1504E+02  0.6493E+03
      2.756  0.8986E+01  0.6500E+03
      2.837  0.1080E+00  0.6500E+03
      2.918  0.1149E-04  0.6500E+03
      2.998  0.8040E-11  0.6500E+03
      3.079  0.0000E+00  0.6500E+03
      3.160  0.0000E+00  0.6500E+03
      3.241  0.0000E+00  0.6500E+03
      3.321  0.0000E+00  0.6500E+03
      3.402  0.0000E+00  0.6500E+03
      3.483  0.0000E+00  0.6500E+03
      3.564  0.0000E+00  0.6500E+03
      3.644  0.0000E+00  0.6500E+03
      3.725  0.0000E+00  0.6500E+03
      3.806  0.0000E+00  0.6500E+03
      3.886  0.0000E+00  0.6500E+03
      3.967  0.0000E+00  0.6500E+03
      4.048  0.1637E-12  0.6500E+03
      4.129  0.7404E-06  0.6500E+03
      4.209  0.2172E-01  0.6500E+03
      4.290  0.6089E+01  0.6505E+03
      4.371  0.4781E+02  0.6544E+03
      4.452  0.2017E+02  0.6560E+03
      4.532  0.2297E+00  0.6560E+03
      4.613  0.2513E-04  0.6560E+03
      4.694  0.3919E-10  0.6560E+03
      4.774  0.3850E-04  0.6560E+03
      4.855  0.4620E+00  0.6560E+03
      4.936  0.4790E+02  0.6599E+03
      5.017  0.9529E+02  0.6676E+03
      5.097  0.5110E+01  0.6680E+03
      5.178  0.4280E+02  0.6715E+03
      5.259  0.2214E+03  0.6893E+03
      5.340  0.3286E+02  0.6920E+03
      5.420  0.1559E+00  0.6920E+03
      5.501  0.2501E+02  0.6940E+03
      5.582  0.1098E+03  0.7029E+03
      5.663  0.1374E+02  0.7040E+03
      5.743  0.2292E-01  0.7040E+03
      5.824  0.1928E-01  0.7040E+03
      5.905  0.1020E+02  0.7048E+03
      5.985  0.7381E+02  0.7108E+03
      6.066  0.3267E+02  0.7134E+03
      6.147  0.3057E+02  0.7159E+03
      6.228  0.1374E+01  0.7160E+03
      6.308  0.6657E-03  0.7160E+03
      6.389  0.2244E-08  0.7160E+03
      6.470  0.0000E+00  0.7160E+03
      6.551  0.1563E-07  0.7160E+03
      6.631  0.3040E-02  0.7160E+03
      6.712  0.4193E+01  0.7163E+03
      6.793  0.6673E+02  0.7217E+03
      6.873  0.7232E+02  0.7276E+03
      6.954  0.1148E+03  0.7368E+03
      7.035  0.2133E+03  0.7541E+03
      7.116  0.7325E+02  0.7600E+03
      7.196  0.4506E+00  0.7600E+03
      7.277  0.2287E-04  0.7600E+03
      7.358  0.3474E-08  0.7600E+03
      7.439  0.1121E-02  0.7600E+03
      7.519  0.2511E+01  0.7602E+03
      7.600  0.5983E+02  0.7650E+03
      7.681  0.3714E+02  0.7680E+03
      7.762  0.4282E+02  0.7715E+03
      7.842  0.1321E+03  0.7822E+03
      7.923  0.2282E+02  0.7840E+03
      8.004  0.6227E+00  0.7840E+03
      8.084  0.2747E+02  0.7863E+03
      8.165  0.8762E+02  0.7933E+03
      8.246  0.3269E+02  0.7960E+03
      8.327  0.5262E+00  0.7960E+03
      8.407  0.2791E+02  0.7983E+03
      8.488  0.8693E+02  0.8053E+03
      8.569  0.9266E+01  0.8060E+03
      8.650  0.3124E+02  0.8086E+03
      8.730  0.1301E+03  0.8191E+03
      8.811  0.3617E+02  0.8220E+03
      8.892  0.2560E+00  0.8220E+03
      8.972  0.1347E+02  0.8231E+03
      9.053  0.7453E+02  0.8291E+03
      9.134  0.3388E+02  0.8318E+03
      9.215  0.1937E+01  0.8320E+03
      9.295  0.2325E-02  0.8320E+03
      9.376  0.2163E-07  0.8320E+03
      9.457  0.0000E+00  0.8320E+03
      9.538  0.0000E+00  0.8320E+03
      9.618  0.0000E+00  0.8320E+03
      9.699  0.0000E+00  0.8320E+03
      9.780  0.0000E+00  0.8320E+03
      9.860  0.0000E+00  0.8320E+03
      9.941  0.0000E+00  0.8320E+03
     10.022  0.0000E+00  0.8320E+03
     10.103  0.0000E+00  0.8320E+03
     10.183  0.0000E+00  0.8320E+03
