72
Lattice="12.39778545 0.0 0.0 -6.19889272 10.73679715 0.0 0.0 0.0 13.44794642" Properties=species:S:1:pos:R:3:forces:R:3 ref_energy_eV=-269.65324953 ref_gap_eV=2.2078 energy=-242.76812445 stress="-0.002799170304807384 0.0012803114796268535 -9.331684663164447e-05 0.0012803114796268535 0.0037722353463017157 -0.00031454816120607323 -9.331684663164447e-05 -0.00031454816120607323 -0.0016125475159598584" free_energy=-242.76812445 pbc="T T T"
Cd      -0.20997051       2.24342821       0.18540415       0.66950927       0.52097012       0.25715042
Cd       4.05019868       2.39666034      13.37419075      -0.09684005       0.10934073       0.25464834
Cd       8.02593261       2.46175722      13.38553732      -0.30915138       0.11294857      -0.05404595
Cd      -2.08705138       5.78748905      13.32857088       0.10941945       0.56533460      -0.33447123
Cd       1.94930344       6.04942739       0.12908885      -0.17561251      -0.32614222      -0.69370343
Cd       6.12749345       6.09216081       0.04981267      -0.59824532       0.06307353      -0.23021340
Cd      -4.36548013       9.58873537      13.36585410       0.57788162       0.01778930      -0.63833482
Cd      -0.15687872       9.58035391       0.14582509      -0.21840783       0.04934871       0.09331966
Cd       4.01891424       9.61298196       0.04166026      -0.42049674       0.20484842       0.19369949
Cd       0.17059632       2.64463924       6.74246131      -0.60157685      -0.48601666       0.11639393
Cd       4.03812299       2.40156384       6.78357249       0.32123211      -0.18023290      -0.75894419
Cd       8.37378868       2.32593781       6.78212025       0.07936318       0.08816620       0.31720846
Cd      -2.00008203       5.98722311       6.63646366      -0.39089432      -0.12087958      -0.06393999
Cd       2.17873518       5.96602363       6.71309570       0.81299415       0.14581050       0.16461784
Cd       6.26658315       5.82369697       6.70270986       0.16496580       0.72276192       0.56072994
Cd      -4.10105849       9.47830731       6.60295003      -0.51212922       0.36008341       0.35012270
Cd       0.02747207       9.24228470       6.67509019       0.15613195       0.73857249       0.16061691
Cd       4.17427132       9.60000300       6.69203810      -0.11252767       0.46392579       0.27452261
Cd       2.04055647       1.16675808       3.25064272       0.24877069      -0.24283472      -0.01860001
Cd       6.14671355       1.27356151       3.64438487       0.70539117      -0.47275549      -0.07323794
Cd      10.20322580       1.06149860       3.33798283      -0.38101961      -0.24221111       0.24964341
Cd       0.14835624       4.70600562       3.30114003      -0.82911641      -0.40195789       0.27239821
Cd       4.15876485       4.76400794       3.23137356       0.29560942      -0.23451542       0.03468751
Cd       8.32877139       4.76621457       3.36144573      -0.00314643      -0.23200338      -0.71122971
Cd      -2.07157337       8.26264548       3.22504644       0.36494458      -0.27707628      -0.41969692
Cd       1.98651849       8.26854921       3.37769582       0.21004169       0.25553980       0.25130949
Cd       6.27767681       8.34756388       3.41796395      -0.01172243       0.20920950      -0.03004807
Cd       2.08050721       1.10225935      10.09572464      -0.00508524       0.15289502      -0.09064593
Cd       6.11603659       1.05248700       9.95751767       0.28730998       0.49484583       0.09997335
Cd      10.39473445       1.40539360      10.33405936      -0.34577434      -0.35298730      -1.31138003
Cd       0.26916516       4.83841942      10.12683955      -0.44156365      -0.52492960       0.07709819
Cd       4.05064662       4.86958502      10.05792071       0.11396903       0.18408038       0.21024368
Cd       8.32641879       4.96621705      10.09162342       0.20472527      -0.64601513       0.04800381
Cd      -1.86571781       8.11602635      10.11502244      -0.15435969       0.65278778       0.50748698
Cd       2.22518758       8.56357954      10.24712713      -0.14573209       0.22455420       0.28941479
Cd       6.31899132       8.40131057       9.94829373      -0.13894696       0.46447568       0.17736237
S       -0.13746832       2.29062105       2.68325046       0.50648543       0.04457988      -0.29332681
S        4.25504866       2.27214979       2.56601449      -1.16724521       0.68154745      -0.64306651
S        8.15624226       2.31345543       2.45894772       0.19840119       0.24344396       0.30554938
S       -1.93530807       5.73768169       2.33192985      -0.36421661       0.67541529       1.02452804
S        2.04374425       5.93691123       2.56618071       0.75521317       0.03458764       0.04489761
S        6.24579628       6.03861909       2.51425012       0.02972458      -0.60802679       0.24596332
S       -4.10714753       9.43503157       2.32719537      -0.02997403       0.41299416       1.12242960
S        0.07139563       9.60205791       2.62496652      -0.63956534      -0.02301855       0.18902033
S        4.11992067       9.33267285       2.57745923      -0.00192912       0.71318678      -0.13387968
S        0.00125280       2.35080971       9.26780343       0.65228639       0.61986747      -0.14850055
S        4.11668745       2.47789055       9.22560203      -0.17188306      -0.15534686       0.54921646
S        8.27643631       2.47121376       9.38115281      -0.21825028      -0.12093393      -0.22363081
S       -1.92972144       5.88553738       9.16114777       0.08412684      -0.47949140       0.02857752
S        2.05950153       6.29441018       9.24537414       0.46185640      -0.92775640      -0.12814566
S        6.26572789       6.00163930       9.30150950      -0.67341145       0.01017355      -0.54903003
S       -3.84236629       9.48692917       9.19843153      -0.61752713       0.01554288      -0.03833450
S        0.06662701       9.43394168       9.20703055       0.04530002       0.10112608       0.00481532
S        4.17719850       9.70216953       9.23584829       0.44012750       0.13771645       0.36684369
S        1.97055256       1.22025707       5.80451264       0.65700883      -0.31012604       0.13538985
S        6.30679065       1.09567855       6.07733718      -0.61219236      -0.05503365       0.31568813
S       10.46558073       1.25883761       5.89779580      -0.02017946       0.11017177      -0.09208310
S        0.15933801       4.95638741       5.84201950      -0.59864534      -0.37989716      -0.19250276
S        4.30436767       4.78246944       5.77643736      -1.12836956      -0.51475722       0.18712916
S        8.25844018       4.72877611       5.80736723       0.84189007      -0.08984027       0.53944268
S       -2.07489523       8.36233535       5.74584933      -0.02120643      -0.40245567      -0.07693100
S        2.18532293       8.33205930       5.90980199      -0.12021819      -0.04689689      -0.29576480
S        6.10957009       8.29908005       5.91229067       0.84846402      -0.15500897       0.11306653
S        1.87417199       1.29324743      12.64108725       0.40096649      -0.39527969      -0.12322189
S        6.00681520       1.09321446      12.55127676       0.37321965       0.54185059      -0.26342382
S       10.18849048       1.35951462      12.68774625      -0.76554654      -0.88798881       0.72942626
S       -0.00235961       4.57969203      12.65050176       0.20461051       0.60475419      -0.19907052
S        3.97228759       4.83796268      12.65109804       0.40169413       0.01488541      -0.09397789
S        8.09161682       4.93751534      12.61320267       0.33698032      -0.71643435      -0.20272433
S       -2.11505922       8.36220780      12.67025074      -0.47655594      -0.46215681      -0.29346132
S        1.86456303       8.41844896      12.80318839       0.69757073      -0.02866880      -0.65518204
S        5.98539648       8.44776708      12.61126172       0.26107913      -0.26353012      -0.78788634
