72
Lattice="12.39778545 0.0 0.0 -6.19889272 10.73679715 0.0 0.0 0.0 13.44794642" Properties=species:S:1:pos:R:3:forces:R:3 ref_energy_eV=-265.93988087 ref_gap_eV=2.1941 energy=-239.26074971 stress="-0.00674646987708685 0.0032884595066486697 -0.002043199524635081 0.0032884595066486697 -0.005228815351092159 0.002266452832264422 -0.002043199524635081 0.002266452832264422 -0.0164206679266506" free_energy=-239.26074971 pbc="T T T"
Cd       0.10534088       2.46422830      13.37074310      -0.18977297      -0.11974686       0.32205606
Cd       4.10572179       2.38720509      13.38425547       0.31854718      -0.13368083       0.54691674
Cd       8.36948107       2.46404566       0.03983093      -0.26384979       0.31857023      -0.20792473
Cd      -2.01570355       6.01503990       0.08434525      -0.78726917       0.06756316       0.11084420
Cd       2.02505081       6.10362631       0.00301584       0.07068673      -2.03042097       0.16633424
Cd       6.17079271       5.90962452       0.10953164      -0.30285505       0.47287700      -1.15671553
Cd      -4.20272522       9.39643504      13.43938519       1.22144844       0.19400321       0.04612344
Cd      -0.01676248       9.49793020       0.09082918      -0.40749228       0.48646017      -0.50683344
Cd       4.15482316       9.57933445       0.24511693      -0.31946545       0.12064775      -2.20533106
Cd      -0.01389519       2.37007861       6.71328196       0.21218151      -0.32823406      -0.73929910
Cd       4.17216475       2.35339900       6.86503181      -0.22125191       0.08913734      -1.85780992
Cd       8.26663723       2.31231904       6.90536220      -0.12711709       0.31552317      -0.62352208
Cd      -2.06476395       5.96433752       6.70608798       0.25001821       0.04231553       0.50375429
Cd       2.08342832       5.93736433       6.76187813      -0.84742335       0.14668923      -0.07622055
Cd       6.17853308       5.97262150       6.67911987       0.10408423      -0.13966959      -0.03404861
Cd      -4.21897717       9.57721619       6.73451963       0.11199528      -0.05588710       0.30751485
Cd      -0.02038295       9.57118898       6.69986629       0.08381992      -0.07489731       0.28247699
Cd       4.12491152       9.68726546       6.57821697       0.08349719      -1.53167681       0.58510058
Cd       2.04905360       1.28023239       3.54453078       0.41314150      -0.34907996      -2.55047036
Cd       6.02069458       1.10026048       3.34491471       1.71770588      -0.23952756      -0.00099132
Cd      10.38615798       1.09684629       3.25191732      -0.21658567       0.65198264       0.53599797
Cd      -0.11685254       4.69334468       3.49828679       0.97604968      -0.06241647      -1.84322861
Cd       4.23666832       4.88759342       3.48731057      -0.87669978      -0.20455766      -0.43855168
Cd       8.18719594       4.80640895       3.44333579       0.55487829      -0.41075389      -0.79808761
Cd      -2.16077636       8.35163989       3.51288238       0.23042447      -0.40388242      -0.98801828
Cd       1.94097163       8.33589964       3.32009881       0.53758620       0.68757185       0.73034032
Cd       6.12348245       8.26045624       3.30665516       0.63744209       0.64836619       0.21479004
Cd       2.14831628       0.98293359      10.10105433      -0.52423414       1.12075630       0.40277739
Cd       6.08064909       1.30034746      10.24028764       0.41997105      -0.48759703      -0.86504298
Cd      10.22085762       1.15796175      10.07590438       1.67768188      -0.83999538       0.32382897
Cd       0.21803118       4.76347368       9.98464447      -2.22051645      -0.73716642       0.79381186
Cd       4.07546302       4.78134508      10.16161137       0.76393958      -0.05778776      -1.02421747
Cd       8.23437100       4.75951728      10.15426180       0.12471680       0.48476181      -0.33364009
Cd      -1.91376072       8.47307596      10.10685577      -2.34833182      -1.57801030       0.72983623
Cd       2.12923752       8.32980790      10.08229996      -0.70289077       0.13420387       0.67437452
Cd       6.03357402       8.44577927      10.17705042       2.81837578      -1.46547340       0.92858167
S        0.01406281       2.33019291       2.63199657       0.38544470       0.24652107      -0.98120868
S        4.25696294       2.41778639       2.69027352      -1.75299042       1.11258542      -1.21667227
S        8.44288359       2.44297652       2.49781659      -0.94120349      -0.21815283       0.47056833
S       -2.00344103       5.78324469       2.57413006      -1.01500598       1.32842110      -0.18303601
S        2.03060557       6.16086708       2.45169067       0.32382975      -2.08243377       0.70388520
S        6.21304461       5.95747478       2.48254564      -0.03046194      -0.09473725       0.69190882
S       -4.10518410       9.45776760       2.41804391      -0.31852277       0.37869833       1.11502722
S        0.00362251       9.54317517       2.52624622      -0.75002179      -0.03292972       0.46450604
S        4.13336855       9.54448753       2.53172989      -0.33975214      -0.70014928       1.80055682
S        0.09968979       2.39981213       9.06841100      -0.20049590      -0.47505329       1.87736409
S        4.08246566       2.28679628       9.17394994       0.04057625       0.69142758       1.67035312
S        8.34754449       2.36128432       9.40338321      -1.52382254       0.42521791      -0.67756794
S       -2.10861671       6.01587340       9.32555631       0.55934433      -0.30255712      -0.40235033
S        2.05057462       5.94711516       9.28309065       1.29924760       0.84856509      -0.59444166
S        6.29279653       6.03889481       9.13599836      -0.63662160      -0.36910795       0.93507081
S       -4.14929232       9.50780301       9.31633411      -0.11221087      -1.09544011      -0.54600278
S       -0.08218467       9.47830580       9.34270661       2.72665476       1.71679633      -1.23551483
S        4.21173049       9.31962829       9.30086090      -2.51237030       2.28688325      -1.74051348
S        2.05351624       1.16074483       5.79560405       0.29749212       0.10269201       2.60684660
S        6.15736554       1.20837810       5.80834530       0.48693373       0.09199200       0.86421323
S       10.34436951       1.18789218       5.90132548      -0.42173539       0.93202516      -0.51662866
S       -0.02110450       4.62739938       5.77162784       0.27221891       1.02331115       2.35911631
S        4.04467008       4.81921645       5.94938696       0.74113128      -0.73579891      -0.00150174
S        8.29241693       4.84362248       5.82784348      -0.33591483      -0.72530086       1.09226738
S       -2.12724488       8.39825917       5.92244077       0.23454664      -0.17809476       0.59145162
S        2.05557292       8.29757442       5.91913984      -0.04810687       0.42523106      -0.09862349
S        6.21891590       8.31812229       5.85627715      -0.47505232       0.35181593      -0.21854924
S        2.12715382       1.03490817      12.68826063      -0.21427865       0.80198941      -0.42309553
S        6.28580126       1.22739747      12.60806434      -0.21467289      -0.13975663       1.10186433
S       10.33066394       1.22131808      12.62290684       0.52173772      -0.27509224      -0.08862409
S       -0.07914560       4.89611070      12.66071103       0.97663773      -0.95243852      -0.78999417
S        4.10841025       4.77408292      12.56040253      -0.16348180       0.12031398       0.88963908
S        8.18744743       4.90431619      12.61616377       0.57959132      -0.40376869       0.32825464
S       -2.03566343       8.33015438      12.62073432      -0.24525651       0.26596260       0.08291536
S        1.96308141       8.28510116      12.80873016       1.04054385       2.15269141      -1.59748782
S        6.18572628       8.48680618      12.67550001      -1.20638789      -1.25329655      -0.28950322
