72
Lattice="12.39778545 0.0 0.0 -6.19889272 10.73679715 0.0 0.0 0.0 13.44794642" Properties=species:S:1:pos:R:3:forces:R:3 ref_energy_eV=-267.32786933 ref_gap_eV=2.1894 energy=-240.61797195 stress="-0.00789017264756233 -0.001025936821609125 0.00041263559299092227 -0.001025936821609125 -0.005473323606245947 -0.0009800150118380758 0.00041263559299092227 -0.0009800150118380758 -0.00813932661399624" free_energy=-240.61797195 pbc="T T T"
Cd      -0.00224301       2.37128843       0.00922475       0.00257524      -0.22958508      -0.43810412
Cd       4.09444582       2.37472625       0.04953565       0.74759931       0.44274531       0.01027934
Cd       8.29356856       2.33574996       0.03883592      -0.19010935       0.43079981      -0.19720204
Cd      -2.04388050       5.90098505       0.21148738      -0.31511206       0.21639470      -2.62949313
Cd       2.10249277       6.17415451       0.04470124       0.17549221      -1.24645181      -0.05425235
Cd       6.30564640       5.88082349       0.08001542      -0.93575124       0.40139731      -0.59950098
Cd      -4.21968254       9.62727296      13.36534093      -0.23523414      -1.16417423       0.33504243
Cd      -0.07191577       9.59409282      13.41368630       0.63087093      -0.10903378       0.30831646
Cd       4.13193301       9.52173218       0.01661642      -0.31349799       0.09956732       0.04422434
Cd       0.01323749       2.37108164       6.75966245      -0.45895365       0.56663560      -0.27934460
Cd       4.13651560       2.40755680       6.69221535      -0.37599832       0.06749831       0.00348960
Cd       8.21027069       2.36614282       6.73457705       0.66611722      -0.09791476       0.28614940
Cd      -2.14051981       5.93977935       6.72849629      -0.05471839      -0.34833496      -0.56438504
Cd       2.09334426       5.96238203       6.71479472      -0.91485982       0.77616291       0.55180377
Cd       6.04945701       5.94302230       6.63675736       0.51802644       0.87202506       0.98748990
Cd      -4.33367838       9.49750320       6.84817481       1.35747786       0.56483201       0.48253574
Cd      -0.01936534       9.53144758       6.73166248      -0.23382366      -0.25916605      -0.19850634
Cd       4.00352251       9.54089102       6.68972142       1.30398911       0.54344672       0.98244401
Cd       1.96092642       1.26694217       3.47844367       0.70113114      -0.33032740      -0.19007760
Cd       6.24082786       1.16659145       3.52528098      -0.33420458       0.06425528      -0.59563127
Cd      10.19188759       1.23572472       3.32934198       0.58889749      -0.14465254       0.40889662
Cd      -0.02103203       4.73452459       3.39276115      -0.31468567      -0.01476400      -0.02406427
Cd       4.15163718       4.95740439       3.51522501      -0.54068125      -0.80800201      -1.73836512
Cd       8.15239802       4.67034077       3.50489766       0.12633188       0.91460482      -0.89482485
Cd      -2.01455620       8.31943368       3.44824523      -0.75239046      -0.09548958       0.05599642
Cd       2.10649626       8.34021164       3.21488476      -0.98572530      -0.22415789       0.54091044
Cd       6.27069047       8.36194034       3.31508326      -0.32154094      -0.01637781       0.37374131
Cd       2.16106610       1.13807527      10.02757233       0.17589152       0.68058906       0.42673728
Cd       6.33898733       1.14452239      10.01714385      -0.84757686       0.27582885       0.94852715
Cd      10.30690216       1.15759659      10.01954269       0.08387513       0.40987222       0.51254161
Cd       0.03331186       4.66424742      10.29973953      -0.12090273      -0.02532586      -1.93575127
Cd       4.06239160       4.96739971      10.10512569       0.90154504      -1.51597027       0.72211507
Cd       8.22404966       4.78282676      10.13373311       0.28607199       0.09090460      -0.22273828
Cd      -1.87505619       8.23328356      10.12461459      -0.65878127       0.61263312      -0.17391325
Cd       1.94111024       8.39589643       9.88754801       1.30430466      -0.11811517       0.85182389
Cd       6.14020887       8.31037322      10.09496402       0.20459716       0.19398416       0.03577465
S        0.02962680       2.40010782       2.47642548      -0.81465528      -0.12465318       0.51817558
S        4.13681408       2.38387840       2.54287071       0.04210924       0.25351824       0.92319727
S        8.24108849       2.50504563       2.46293343      -0.25711856      -0.87464340       0.82498370
S       -2.09301552       5.95364389       2.47210183      -0.38827138      -0.12980015       2.50241224
S        1.97535087       5.90512086       2.53916580       0.45260433       0.33473820       0.07700330
S        6.11028935       5.95508573       2.49817928       0.70368346       0.31237921       0.66190730
S       -4.15382954       9.56411643       2.52786078       0.41178737       0.12316743       0.00956307
S       -0.12709131       9.51239793       2.53250301       1.03999262       0.42760409       0.05694495
S        4.07975265       9.51010412       2.54782856       0.73841663       0.58630634       0.08990556
S        0.04285890       2.27515416       9.17975946      -0.11127316       0.69687301       1.25112134
S        4.23837463       2.36579484       9.17888238      -0.24168694       0.39318793       0.59870798
S        8.23108918       2.40566605       9.27593285       0.84037500       0.36489124      -0.20936553
S       -2.14374999       6.04746374       9.14451602       0.30201199      -1.15008604       0.90784049
S        2.15342981       6.00854628       9.35953120      -1.96686339       0.10919700      -1.15252469
S        6.15081387       5.93286013       9.42430687       0.49442281       0.24687718      -1.38437490
S       -4.17230372       9.56148205       9.39333799       0.43367311      -0.94575561      -0.37133119
S        0.02367116       9.57511940       9.21140261      -0.77012041       0.14268283      -0.05438373
S        4.17114001       9.57845682       9.27757646      -0.56971500      -0.48750569      -0.22677241
S        1.97288452       1.22030485       6.00227115       1.03142450      -0.48807225      -0.43526609
S        6.20497843       1.17395603       6.04349166      -0.35396388       0.01554033      -0.65703940
S       10.36153945       1.15589266       6.07155214      -0.51897607       0.76196656      -1.11377762
S       -0.01187447       4.77641667       5.89870367      -0.13127297       0.06418662       0.16335607
S        4.04268835       4.89635872       5.83653341       0.07583033      -1.09490445       1.11080947
S        8.04813543       4.69744528       5.88327780       0.74202285       0.41813367       0.81110585
S       -2.07728961       8.29574359       5.97608046      -0.46415575       0.51305199      -0.18120257
S        2.09944527       8.51788588       5.96203395      -1.49129482      -1.70568685      -1.10874677
S        6.13383113       8.47277061       6.01534430      -0.62310047      -1.30099609      -1.06520738
S        2.15621113       1.16588185      12.72848371      -0.90200935       0.80970713      -1.11301370
S        6.29201367       1.21246001      12.77179322      -0.90501344       0.02288529      -1.09113579
S       10.22524576       1.16857819      12.73103169       1.24674170      -0.10089635      -0.87888979
S       -0.00159212       4.76668226      12.61903907      -0.00678135       0.25527538       1.40410296
S        4.12407938       4.77447149      12.61042701      -0.16885824       0.03266408       0.44306718
S        8.12984769       4.65229479      12.59619169       1.35617459       0.38713114       0.20498675
S       -2.04858905       8.52937747      12.53552329      -0.66706158      -1.16438996       0.56185339
S        2.06724692       8.36290741      12.60363230      -0.42461461       0.92575769      -0.60740695
S        6.04416446       8.29017087      12.59760735       0.99528945      -0.10666653       0.39670913
