72
Lattice="12.39778545 0.0 0.0 -6.19889272 10.73679715 0.0 0.0 0.0 13.44794642" Properties=species:S:1:pos:R:3:forces:R:3 ref_energy_eV=-269.58257558 ref_gap_eV=2.2132 energy=-242.73698728 stress="-0.0015866894117645086 0.0002684163870680293 0.00018422684251416586 0.0002684163870680293 -0.004553075219857808 0.0010716918582563304 0.00018422684251416586 0.0010716918582563304 5.0347588994103494e-05" free_energy=-242.73698728 pbc="T T T"
Cd      -0.07553754       2.37000807       0.16931529       0.42892990       0.04083422      -0.39844386
Cd       4.28908504       2.38017399      13.44784032      -0.60103915       0.30245020      -0.06956941
Cd       8.35930956       2.41040956      13.35128231       0.26799780       0.26414415       0.30553842
Cd      -2.03445210       6.15261413       0.15076183       0.01926611      -0.98680455       0.13990721
Cd       2.00230595       6.04916155      13.35336728       0.18522440       0.15806372       0.53630137
Cd       6.09633601       5.97453114      13.26625471       0.16424812       0.05403850       0.51113195
Cd      -4.13312151       9.51466575       0.10597197      -0.43148976       0.49473093       0.01549600
Cd      -0.02475335       9.67244267       0.06065010       0.77945979      -0.20498396       0.10655879
Cd       4.25083688       9.49569598       0.10936072      -0.68789784      -0.03712375       0.10888619
Cd      -0.02239666       2.41574661       6.64397218      -0.18637212      -0.59370133      -0.07972801
Cd       4.41138795       2.33139436       6.78938980      -0.71717702       0.58023113      -0.18581515
Cd       8.30494775       2.46524282       6.76639624       0.36280980      -0.19278884      -0.04181907
Cd      -1.99655951       6.01587823       6.63228605      -0.04653644      -0.91507847       0.03053832
Cd       2.04455996       6.09335657       6.55047789       0.01596163      -1.19543840       0.37290556
Cd       6.22382703       5.97216561       6.74201134       0.44967195      -0.19381614      -0.49242966
Cd      -4.07497466       9.57029095       6.93722052      -0.04111701       0.24451314      -0.97672494
Cd      -0.03980532       9.59326491       6.81393217      -0.27786856      -0.47103120      -0.27456224
Cd       4.13622289       9.44706677       6.64495778      -0.13100685      -0.24712438       0.01581636
Cd       1.91459831       0.98838853       3.56040299       0.19695571       0.75413657      -0.26303172
Cd       6.30926668       1.24759897       3.29407192      -0.45237450       0.07867626       0.24659422
Cd      10.24314686       1.15520303       3.25920476       0.32453495      -0.33652676       0.52947671
Cd      -0.01459492       4.89428910       3.28387098       0.21812581      -0.38534816      -0.48454623
Cd       4.18493893       4.54641365       3.26632437       0.30885939       0.24769289       0.51593176
Cd       8.14718903       4.83358164       3.20420992       0.56474767      -0.05426458       0.64569407
Cd      -2.15379058       8.43375448       3.31920250       0.13297904       0.79486402       0.94814816
Cd       2.01909646       8.26896376       3.28956323       0.15088149       0.17835835       0.01000666
Cd       6.09396153       8.25972260       3.53388606       0.19449406      -0.34501477      -0.36284208
Cd       2.18079867       1.06823433      10.12726599      -0.17993560       0.77736937       0.36399900
Cd       6.31278653       1.11059916      10.01802953       0.16316336      -0.06846333       0.25068115
Cd      10.52340983       1.14321819      10.12313841      -1.07935564      -0.10012751       0.11365584
Cd      -0.16580662       4.67098691      10.13461623       0.19569668      -0.20831928      -0.45622588
Cd       3.99730645       4.75763598       9.94093057       0.46896425      -0.03885021       0.31220915
Cd       8.27922662       4.94893789      10.16796095      -0.45744043      -0.28469681      -0.72614398
Cd      -2.07583275       8.33237475      10.23607991      -0.13946164      -0.10904560      -0.25904850
Cd       2.07862666       8.26266040       9.95555037      -0.29815621      -0.34282683       0.55056317
Cd       5.99799207       8.52097969      10.03954382       0.54119970      -0.43541131       0.29948128
S       -0.06072479       2.33737658       2.64543927       0.31996519       0.43571718      -0.04548175
S        4.03689090       2.22925843       2.50745796       0.27330679      -0.40652728       0.18578591
S        8.33867208       2.46131981       2.52318856      -0.44041975      -0.01350386      -0.67195836
S       -2.11039214       6.14296562       2.74524926       0.05352649      -1.24545241      -1.07336902
S        2.20955911       5.88628777       2.62543935      -0.71879097       0.18790784      -0.88625809
S        6.16521985       5.96703987       2.49824114      -0.60766290       0.12352617      -0.60955418
S       -4.28136723       9.46962092       2.68164222       0.08622991      -0.13421055      -0.79982407
S       -0.04689821       9.56443811       2.63215808       0.27652501       0.01661158      -0.45537990
S        4.18854105       9.45897173       2.59611032      -0.75278682       0.24564607      -0.13385087
S        0.03774165       2.20200661       9.18346396       0.68890708       0.93131988      -0.01268657
S        4.23506932       2.27780346       9.30651267      -0.24480800       0.41896100      -0.03081437
S        8.31376722       2.40123937       9.30163914       0.38303960       0.33129155       0.14762361
S       -2.08124333       6.01057425       9.15994713       0.01937589      -0.06448447       0.45275461
S        1.92465069       5.88226641       9.20700123      -0.16193437      -0.06021533      -0.44024437
S        6.07413939       6.14277396       9.17345909       0.30860048      -0.66236018       0.94035986
S       -4.17566532       9.53483322       9.33346531       0.09789485      -0.74851772       0.67235039
S       -0.02310637       9.42764036       9.27533939      -0.13400751       0.33569479       0.36459467
S        3.98877925       9.53984129       9.19282925       0.05945594       0.55462698      -0.40228103
S        2.17512147       1.25518087       5.97960113      -0.00099179      -0.21380404       0.48060346
S        6.33159893       1.12364029       5.90705968       0.16382904       0.32011351      -0.50755753
S       10.27811791       1.01327847       5.81037312       0.19872849       0.94688785       0.18004363
S       -0.04399131       4.69244483       5.70464066       0.32106032       0.46524908       1.05400849
S        4.21149332       4.81686745       5.87117559      -0.40772796      -0.51835201      -0.04473164
S        8.35667038       4.77081980       5.79025755      -0.43920113       0.08169300       0.17351258
S       -2.11320432       8.30288216       6.01414286       0.21866019       1.21950842      -0.73276834
S        1.92265787       8.36534015       5.82043111       0.45132048       0.56591156       0.02623925
S        6.29927183       8.35581886       5.92903148      -0.11112806       0.13742907       0.70559778
S        2.10236160       1.23807243      12.67748923      -0.09991153      -0.22861635       0.05778754
S        6.32579875       1.26253407      12.62346842      -0.27089389      -0.32270122      -0.39773008
S       10.37197479       1.08023711      12.65327257       0.05821357       0.47156407      -0.11245072
S        0.01182960       4.78010713      12.60767085      -0.72801908      -0.16206066       0.57521408
S        4.04010571       4.82904813      12.61053110       0.11717121      -0.65603299      -0.48731420
S        8.25813123       4.85423322      12.62456658       0.42116133       0.05818687       0.50598364
S       -2.03136022       8.42877540      12.76611779      -0.13166843       0.23393103      -0.50198693
S        2.16146996       8.40850508      12.54019901      -0.57856065       0.22141726       0.30187537
S        6.15519147       8.37913940      12.60079465       0.90459814      -0.08967294      -0.33668346
