72
Lattice="12.39778545 0.0 0.0 -6.19889272 10.73679715 0.0 0.0 0.0 13.44794642" Properties=species:S:1:pos:R:3:forces:R:3 ref_energy_eV=-269.62602358 ref_gap_eV=2.1981 energy=-242.73658522 stress="0.0006563388931957632 -0.00021925103352500502 0.000974274808242165 -0.00021925103352500502 0.0001265518154289123 0.0005529110951311169 0.000974274808242165 0.0005529110951311169 -0.0025623102014496707" free_energy=-242.73658522 pbc="T T T"
Cd       0.02647591       2.40477060       0.05159856       0.40146528       0.08990189       0.09006738
Cd       4.17814464       2.44632630      13.30776355      -0.24329320      -0.16847924       0.31583871
Cd       8.40563022       2.37108229       0.02335465      -0.48647993       0.66774273       0.21701171
Cd      -2.05301022       6.07495337       0.08107054      -0.60376486      -0.06206912      -0.70509068
Cd       1.96673522       6.01142901       0.15399997      -0.26455078      -0.14502957      -0.27954006
Cd       6.01757295       6.27958041      13.44308445       0.24462132      -0.70373225      -0.18162167
Cd      -4.13022558       9.72712732      13.42049903       0.39190888       0.12696149      -0.29347854
Cd      -0.01950469       9.73542676       0.09700084       0.26606112      -0.85774847       0.48042694
Cd       4.00006421       9.65165386      13.41086344       0.18707475      -0.33667344       0.04405362
Cd      -0.00865936       2.49513631       6.73547067      -0.20797801      -0.43142642       0.13360561
Cd       4.18588352       2.27090410       6.60901492      -0.08699306       0.29975457       0.05566458
Cd       8.39228308       2.46089055       6.73595331       0.08010518      -0.54406094       0.07576744
Cd      -2.22444252       6.12943607       6.69282629      -0.01398172      -0.18735249       0.14336466
Cd       1.92280714       6.00630777       6.79297422       0.21907081       0.24310647      -0.58450345
Cd       6.13647632       5.87561110       6.75330681      -0.26442229       0.01575904       0.04910082
Cd      -4.18552354       9.55053428       6.76283011      -0.38288775       0.17553467       0.06526963
Cd      -0.12336627       9.68512808       6.46498970       0.36414047      -0.60842015       0.23582896
Cd       4.02683153       9.53281234       6.92687233       0.32823665       0.28336002      -0.21212129
Cd       2.11103825       0.94352676       3.36800227      -0.04399079       0.49842010       0.74386216
Cd       5.97141177       1.04847755       3.36227587       0.72231397      -0.21972443      -0.49971209
Cd      10.27981641       1.18010274       3.33852639       0.66073755      -0.68768066       0.11009642
Cd       0.01744449       4.57872422       3.32685008       0.22691736       0.27996598       0.64788205
Cd       4.29676101       4.53111200       3.40654153      -0.88266934      -0.01973982       0.46208143
Cd       8.18039947       4.62866578       3.29153080      -0.32289715       0.19949657       0.00147542
Cd      -2.20277194       8.02283997       3.17086197       0.69377286       0.83801248       0.50562912
Cd       2.19282712       8.12463930       3.39243867       0.27021421       0.00646436      -0.11447440
Cd       6.27491830       8.25226407       3.52555008      -0.36676047      -0.00843549      -0.58183142
Cd       2.21261157       1.41532890       9.87210075      -1.20287473      -0.34514018       0.12612196
Cd       6.21006617       1.01655770      10.08023180       0.38359940       0.11590868      -0.33810262
Cd      10.36341932       1.29375958      10.11288233      -0.45397199      -0.20038221      -0.11703457
Cd       0.19980941       4.88856896      10.11136850      -0.51966087       0.11332355      -0.10420486
Cd       4.17037581       4.74887024      10.16280636       0.02232619      -0.22921396      -0.25570702
Cd       8.45978369       4.75682900      10.14038971      -0.22136117      -0.00928854      -0.60028626
Cd      -2.03096616       8.48746198      10.12952040      -0.31299904       0.01568965      -0.44004680
Cd       2.12152647       8.40202854      10.15230149      -0.18735201       0.17915982      -0.78948524
Cd       6.28800553       8.27830896      10.14465445       0.02855463       0.01895356      -0.57481105
S        0.13174643       2.22700800       2.62079430      -0.68980285      -0.11024575      -0.56514805
S        4.03460184       2.24887338       2.52437037       0.16492766       0.03649820      -0.84273940
S        8.25697166       2.27635722       2.64362864      -0.78970328      -0.24194822      -1.02678957
S       -2.09481444       5.68438864       2.54333413       0.12050910       0.07016604      -0.13452381
S        2.13505158       5.72527436       2.60191903      -0.10480819       0.24917433       0.13839107
S        6.07887783       5.81814776       2.50608493       1.02125728       0.96788853      -0.27699425
S       -4.09514896       9.46876272       2.44713101      -0.29206802      -0.84987289       0.04898427
S        0.14030054       9.36849328       2.71523680      -0.99943281       0.01475143      -0.84177128
S        4.16604155       9.41852686       2.46488997       0.26061675       0.23541628       0.27799164
S       -0.13835408       2.51844698       9.30068352       1.36114827       0.26700473      -0.43933955
S        4.28177407       2.34537389       9.17143773       0.42506931       0.71563842      -0.18672239
S        8.30099930       2.39188021       9.22610054      -0.38553324      -0.11225023       0.21713446
S       -2.03034459       6.09955395       9.27374473       0.27915079      -0.12196321      -0.25031074
S        2.22739265       6.05767765       9.22196758      -0.19347115      -0.17894216       0.42852646
S        6.22633851       5.84749411       9.31947622       0.35928258       0.52192106      -0.26320979
S       -4.16786457       9.71219963       9.22336375       0.14879671      -0.51239593       0.47941554
S        0.01587400       9.46870346       9.03813295       0.26424146       0.09678458       0.28670753
S        4.19803992       9.64147527       9.42285355       0.03603638      -0.45198695      -0.24633058
S        2.01420057       1.18814310       5.92141214       0.06138204       0.11067155      -0.17216968
S        6.32276731       1.26624525       5.75816496      -0.14455509       0.36410648       0.63481432
S       10.35632258       1.16573959       5.85730686       0.22163850      -0.10726994       0.34673844
S       -0.11423549       4.83615740       5.98623205      -0.20296269       0.27302908      -0.69407974
S        3.96903286       4.72833150       5.89373196       0.41646242       0.00573902       0.18230205
S        8.16168830       4.68304605       5.78871870       0.23598526       1.01750686       0.30805233
S       -2.22194096       8.50402339       5.77229997       0.47144079      -0.70336578      -0.46250248
S        2.09307343       8.42075781       5.86362726      -0.49782848      -0.36167315       0.37188699
S        6.14667338       8.34264471       5.98025699      -0.15602247      -0.23073182       0.21908004
S        2.07518404       1.29278349      12.39491936       0.04369131       0.17330641       0.66308880
S        6.25902831       1.22411405      12.57398724       0.15443165       0.46793971       0.13509907
S       10.41155484       1.25801248      12.58456015      -0.13620636      -0.12405069       0.35705822
S       -0.10381217       4.79529100      12.63735451       0.39710298       0.06841357       0.06480375
S        3.97682146       4.83937972      12.63597044       0.52311416       0.16263332       0.18326768
S        8.13929375       4.84710249      12.52372111       0.16845560       0.05523430       1.47340632
S       -2.03633489       8.49562839      12.60972234      -0.04904223      -0.25502494       0.53044516
S        2.03499315       8.30290664      12.55575573      -0.29077508       0.43503423       1.00079997
S        6.25095593       8.59624882      12.59449052      -0.62476050      -0.35005471       0.22354060
