72
Lattice="12.39778545 0.0 0.0 -6.19889272 10.73679715 0.0 0.0 0.0 13.44794642" Properties=species:S:1:pos:R:3:forces:R:3 ref_energy_eV=-267.92482522 ref_gap_eV=2.179 energy=-241.1595556 stress="-0.006821869635410424 0.0001222036868208931 -0.0021274329095490444 0.0001222036868208931 -0.004118243884188876 -0.0019958678578166408 -0.0021274329095490444 -0.0019958678578166408 -0.005892360971592577" free_energy=-241.1595556 pbc="T T T"
Cd      -0.02171305       2.47508889      13.44085518       0.34769104      -0.29674987      -0.20948912
Cd       3.99344032       2.32724555       0.07717198       1.01356262       0.23799095      -0.35823584
Cd       8.27417210       2.30700970       0.20301114       0.57325906       0.34766204      -1.56537643
Cd      -2.29767035       5.88961822       0.04356866       1.05992434       0.92253119      -1.10000485
Cd       2.04553641       5.98612409       0.01323897       0.04781093       0.44074501       0.31777004
Cd       6.19060444       5.86708716      13.43272577      -0.31443630       0.18746050      -0.75465716
Cd      -4.17667475       9.46767240      13.41943476       0.17026897       1.04497798       0.59448689
Cd      -0.00908615       9.48975091      13.28079046      -0.73922944       0.80022037       0.59924201
Cd       4.09788082       9.52320215      13.41616448       0.52760106       0.50316298      -0.85660095
Cd       0.00829214       2.37712689       6.71477441       0.25261322      -0.81637384      -0.15433840
Cd       4.31255200       2.46140141       6.75687240      -1.02876635       0.19244316      -0.34262374
Cd       8.21365300       2.52560842       6.54757071       0.62947460      -2.43980097       1.39747894
Cd      -2.07598450       5.86116259       6.78610326      -0.16411743       0.45531648      -0.37647488
Cd       2.03904078       6.03539944       6.65401161      -0.15094750      -0.50044442       0.18255318
Cd       6.17989306       5.96090583       6.70887964      -0.24133410       0.25173140       0.62261304
Cd      -4.14605228       9.41731307       6.67950489       0.74025599       0.44207158      -0.62217258
Cd       0.05482543       9.57333430       6.74833053      -0.98353795       0.04672411       0.38125729
Cd       4.12906081       9.46617097       6.77372873      -0.04758318       0.30106584      -0.22109644
Cd       2.09174382       1.01289484       3.32069052      -0.18610441       1.07911740      -0.15621128
Cd       6.21196297       1.29058256       3.29390866      -0.33994013      -1.04672688       0.38268701
Cd      10.32081898       1.25853139       3.35940312       0.70052615      -0.56984080      -0.07960960
Cd      -0.05830468       4.74450176       3.31613745      -0.34616201       0.33840213       1.08892491
Cd       4.22163613       4.77097655       3.33088137      -0.22853497       0.19420024      -0.44783340
Cd       8.25186886       4.74686375       3.36047290       0.21769882       0.39328177      -0.09473075
Cd      -2.17359908       8.16750049       3.35488179       0.31758691       0.57525629      -1.35589589
Cd       2.06939012       8.30161082       3.38385135      -0.32357144       0.12471480      -0.54961535
Cd       6.19145183       8.35300593       3.36562643       0.05516141      -0.05227204      -0.11978547
Cd       2.00589641       1.26299210       9.95084534       0.67080987      -0.66123221       0.58865187
Cd       6.08427470       1.20550010      10.10293489       1.14397310       0.13695409       0.37246830
Cd      10.31802663       1.18069863      10.10071141      -0.45480561       0.41730822      -0.17932317
Cd      -0.04015426       4.73142531      10.22930699       0.12847248       0.18599620      -0.60511326
Cd       4.12953156       4.75390537      10.06981650      -0.17249531       0.33597835       0.41776720
Cd       8.26441883       4.93474213       9.95760966      -0.17828788      -0.98589460       0.77632608
Cd      -2.16418780       8.37561398      10.05203683       0.48274200       0.09056129       0.23226590
Cd       2.05786483       8.33826270      10.08603270      -0.01910454      -0.15668716       0.30120435
Cd       6.24786392       8.40620214      10.16254103      -0.23412006       0.10097557       0.34690920
S        0.01147545       2.53953608       2.47982163       0.00220702      -1.87610084       0.14452005
S        4.12938390       2.38491139       2.52793273      -0.14572800       0.04986335       0.40122226
S        8.28053235       2.37899617       2.53704358       0.08489718       0.20678881       1.21629379
S       -1.99878479       5.92220483       2.37044006      -0.69703825      -0.18986240       1.42262802
S        1.93632705       5.79222312       2.56000057       1.44233521       1.13658201      -0.04773967
S        6.28330590       5.99220713       2.39039883      -0.24484343      -0.14900904       1.23527840
S       -4.14259677       9.51277608       2.50507310      -0.05427425      -0.71238417      -0.25844034
S       -0.13514144       9.51217009       2.40256250       0.55506497       0.16340783       0.60338206
S        4.21406412       9.45656003       2.33094802      -0.63183292       0.46820858       1.99733169
S        0.00262740       2.37450185       9.25527748      -0.55413655       0.34758943      -0.19200861
S        4.17022611       2.41345527       9.25330399      -0.67021492       0.04940770      -0.14169761
S        8.27090659       2.53158559       9.19243011      -0.07885203      -0.59499977       0.07292987
S       -2.10928043       6.00337931       9.28652203       0.97238704       0.10076020      -0.20937863
S        2.04035662       5.93241949       9.18909126      -0.07877832       0.06979975       0.37878623
S        6.19675089       6.02747665       9.39027361      -0.65185881       0.12993504      -0.81399116
S       -4.13790043       9.46476488       9.11063634      -0.27457753       0.81375997       0.59177508
S       -0.01503609       9.57191232       9.31540284      -0.09593293      -0.24426094      -0.20586774
S        4.12596465       9.55564660       9.26940239       0.12029535      -0.21239547       0.21680202
S        2.12771178       1.09299500       5.75793245      -0.02457295       0.48844199       1.15082789
S        6.22904650       1.19485714       6.03768900       0.04312599      -0.23290366      -1.20045782
S       10.28608845       1.17032367       5.88825287       0.13233958      -0.13640699       0.00363312
S       -0.02822666       4.68779494       5.97503004       0.04653637       0.64270175      -0.69098867
S        4.12501027       4.88111784       5.80664010      -0.10436021      -0.45965605       0.46640697
S        8.11645095       4.66772711       5.91763582       0.74231815       2.72841714      -1.03498736
S       -1.99350123       8.33937095       5.66452920      -0.12539275      -0.34515655       2.31005231
S        1.96378021       8.38384523       5.96479279       1.03147093      -0.12809731      -0.76814365
S        6.21906845       8.33292415       5.89304854      -0.57980931      -0.22551016      -0.26117763
S        2.10800482       1.16420412      12.63092141      -0.93839336      -0.10225572      -0.70142834
S        6.35057504       1.24543991      12.66782796      -1.23706471      -0.20707520      -0.43344794
S       10.38020152       1.22173317      12.60460284      -0.21952022      -0.06702544       0.18089853
S        0.01752973       4.85785850      12.66592292      -0.74511234       0.05170077       0.03979434
S        4.02414338       4.76148566      12.68636165       0.57385612      -0.16196704      -0.46961205
S        8.24437266       4.74682123      12.65030125      -0.62615021      -0.81640048      -0.91550341
S       -2.17397077       8.54333069      12.56020243       0.81848828      -1.33331849      -0.26473637
S        2.04380097       8.44804162      12.75201143       0.40846587      -1.14407705      -1.18479998
S        6.25266614       8.36702647      12.76967033      -1.12169806      -0.72932874      -1.09157332
