72
Lattice="12.39778545 0.0 0.0 -6.19889272 10.73679715 0.0 0.0 0.0 13.44794642" Properties=species:S:1:pos:R:3:forces:R:3 ref_energy_eV=-267.35070308 ref_gap_eV=2.1903 energy=-240.63977174 stress="-0.01204460777886293 0.0008873181655154507 -0.0006618120975142868 0.0008873181655154507 -0.002178451548155308 -0.0013809555833458834 -0.0006618120975142868 -0.0013809555833458834 -0.004693630322882315" free_energy=-240.63977174 pbc="T T T"
Cd       0.11705729       2.36820590       0.03974621      -0.78876485       0.57639010      -0.20155356
Cd       4.09997672       2.40747026      13.43969342       0.41631144      -0.11155744       0.49302253
Cd       8.17804966       2.20309049      13.44178269       0.66298266       0.69843798      -0.28189231
Cd      -2.06523618       5.98374836      13.43283469      -0.66858912      -0.62121211       0.62720302
Cd       2.07612212       6.11003038       0.00673433      -0.01280142      -1.15796481      -1.02290848
Cd       5.99965771       5.88760410       0.04999758       3.28642014       1.68038239       1.11960001
Cd      -4.03492448       9.46089824      13.37766597      -0.93822132       0.23689846       0.37757679
Cd       0.01293753       9.38333271       0.02904124      -1.03482332      -0.06360576       0.05279978
Cd       4.14611552       9.51161607      13.41839913       0.38831139       0.42055431      -0.04002018
Cd       0.09459758       2.32337354       6.59566420       0.56778061       0.14927600       1.14122888
Cd       4.14389123       2.38719092       6.71788896       0.04691758       0.64345499       0.07575669
Cd       8.34007067       2.20632989       6.66005875       0.01497095       1.05481767       0.40561625
Cd      -2.09988266       5.94174021       6.72690459      -0.02676305      -0.17851898      -0.33988877
Cd       2.04256212       5.94752477       6.75412082       0.34717790       0.01442453      -0.58543036
Cd       6.19151078       5.96925820       6.72511440       0.10325482       0.75741739      -0.00399013
Cd      -4.04048898       9.54736918       6.70799611      -2.00234143       0.95026733       0.55220476
Cd       0.00741605       9.53884685       6.72188259      -0.64834563       0.01463376       0.37835351
Cd       4.12094256       9.49374124       6.71744154       0.85801509       0.49425518       0.12092278
Cd       2.07938614       1.17008166       3.36532062       0.24022537       0.30756602       0.03445049
Cd       6.17399134       1.10029097       3.41691689      -0.08431384       0.10934111      -0.03375524
Cd      10.27965852       1.34914900       3.37802207       0.13929091      -0.53884625      -0.22482854
Cd       0.02428361       4.80697113       3.37412297      -0.09124244       0.14099649      -0.00367528
Cd       4.17167684       4.86205455       3.36189005      -0.68336476       0.45332463      -0.43897601
Cd       8.05217048       4.72306403       3.40907795       1.09352316      -0.31317827       0.30362496
Cd      -1.92605461       8.36892517       3.48297926      -1.35632338      -0.91893133       0.06094430
Cd       2.10220148       8.42426240       3.48962631      -0.26547871      -0.28487383      -1.49814675
Cd       6.22353872       8.56862949       3.25849861       0.06047967      -0.97846407       0.58755590
Cd       2.03897990       1.15907601      10.10218153       0.16566257       0.20716394       0.21431125
Cd       6.22069467       1.17313971      10.01668218       0.10769118      -0.47141763       0.40509677
Cd      10.35329870       1.42070363      10.01634477      -0.43717138      -0.93183947       0.24548264
Cd      -0.04321607       4.71115219      10.04166174      -0.32659350       0.49576010       0.30389082
Cd       4.13019391       4.72905580      10.07644485       0.42348354       0.35801056      -0.00338624
Cd       8.22400248       4.72204135      10.07507263      -0.03455159       1.10437992       0.15606943
Cd      -2.14775267       8.43721850      10.09021246       0.94771105      -1.25694445       0.30299603
Cd       2.17872539       8.26009946      10.10945849      -0.35250763       0.20242121       0.18039886
Cd       6.12094072       8.41522793      10.08922619       0.73355903      -0.06395189      -1.39149847
S        0.00099108       2.38826717       2.53611594       0.21073512       0.11228388       0.22167891
S        4.22867943       2.52174253       2.70286254      -0.63942672      -0.94360252      -0.86749664
S        8.17148794       2.31804090       2.52758429       0.12651957       0.19290899       0.03125724
S       -2.15778930       5.88306201       2.54680033       0.15525262       0.31512153       0.33628447
S        2.04343207       6.10883441       2.35083995       0.07698033      -0.45581393       2.15530392
S        6.20739463       5.98589003       2.62701263      -0.39196247       1.12679402      -0.97587822
S       -4.14243578       9.55721944       2.50491428       1.07669059       0.15114871      -0.32270788
S       -0.09535868       9.49255010       2.52583660       1.06472160       0.38239865       0.02929389
S        4.14216608       9.47765666       2.54581648      -0.61583510       1.10748275      -0.53903750
S        0.01052919       2.34798894       9.26581905       0.75926251       0.29560099      -0.65437243
S        4.14924899       2.37287179       9.26256747      -0.08200194      -0.04780952       0.06860412
S        8.27280041       2.46857960       9.27445989      -0.44997716      -0.96740544      -0.73966422
S       -2.14344277       5.99244173       9.15435037       0.35266737      -0.09186832       1.01187763
S        2.06697640       5.91625267       9.22620328      -0.01218103      -0.06561139       0.37701927
S        6.19859270       6.06045344       9.18634895      -0.17731427      -0.37402006       0.48826361
S       -3.92526539       9.61275831       9.20708555      -2.03048859       0.38277489      -0.22746872
S       -0.00366825       9.37610137       9.31603355       0.62008918       0.69987755      -0.33939337
S        4.13253232       9.54375786       9.25741530      -0.33331449       0.78185068      -0.35477186
S        2.11662252       1.21134961       5.97175507       0.38839936      -0.34980945      -0.67392508
S        6.20992520       1.25281147       5.95442739      -0.08030631      -0.66619048      -0.17613471
S       10.49420393       1.36310383       5.88196716      -1.28392048      -1.45576500      -0.30018035
S       -0.02598272       4.64391891       6.03920580       0.28740069       1.46123737      -0.91385894
S        4.26883493       4.82956200       5.78537796      -1.29152540      -0.29052324       0.93590053
S        8.19843930       4.83841030       5.95314297       0.48201842      -1.01891550      -0.38544475
S       -2.27975574       8.33819001       5.98033997       2.75394782      -0.87435064      -0.96162275
S        2.08531031       8.52790718       5.82608570      -0.47860023      -0.94494680       1.20699302
S        6.23228096       8.42163854       5.79768377      -0.14885415       0.00092208       0.41461397
S        2.06515516       1.16216574      12.68311652       0.46790320      -0.11279512      -0.43277184
S        6.18128285       0.97643171      12.73396697      -0.60364107       0.78132838      -0.83715432
S       10.40735150       1.23579032      12.49356920      -0.22580699      -0.23397024       0.84662265
S       -0.05757562       4.89494286      12.67158424       1.03985910      -0.88774632      -0.61866753
S        4.27789864       4.82542371      12.65996736      -3.26304260      -1.71525243      -1.42897350
S        8.26991985       4.78827826      12.56954081      -0.47478999      -0.47081584       0.55865715
S       -2.16340413       8.22268849      12.57046334       0.97744054       0.66928608      -0.09359871
S        2.03121338       8.37368651      12.71672980       0.76306238       0.33781907      -1.17647598
S        6.19311425       8.32165083      12.40651701       0.12846688      -0.01049114       2.26807279
