72
Lattice="12.39778545 0.0 0.0 -6.19889272 10.73679715 0.0 0.0 0.0 13.44794642" Properties=species:S:1:pos:R:3:forces:R:3 ref_energy_eV=-267.56313199 ref_gap_eV=2.1677 energy=-240.83165038 stress="-0.002467089107832774 0.0020504945692938676 -0.0007511642189604968 0.0020504945692938676 -0.009078988315743124 0.0013741588919832528 -0.0007511642189604968 0.0013741588919832528 -0.007433990064124646" free_energy=-240.83165038 pbc="T T T"
Cd       0.00973604       2.41446099       0.01073375      -0.19505979      -0.11419441      -0.15445756
Cd       3.97778991       2.49924872       0.04046379       0.41380138      -0.58348483      -0.91380705
Cd       8.24493844       2.58082863       0.08410911      -0.14710702      -1.74745369      -0.09764793
Cd      -2.06852326       5.96554316       0.00014403      -1.20476811       0.91967343       0.95604704
Cd       2.01154850       5.90015907       0.06205407       0.66931655       0.34123022      -1.06685437
Cd       6.18622151       5.96733975      13.35126389       0.29984909       0.12355656       0.56526308
Cd      -4.18639908       9.55547857       0.13384486      -0.02305377      -0.02845354      -1.46927200
Cd       0.07908653       9.42437262      13.29964892      -0.68395825       0.70316028       0.56917257
Cd       4.13539013       9.53788955       0.00368729      -0.39968584      -1.30236159       0.66385778
Cd       0.06449415       2.56827860       6.81360606      -0.39636462      -1.07086337      -0.48303191
Cd       3.91483483       2.40893207       6.62075955       1.33515306      -0.22149618       0.79213211
Cd       8.24093191       2.42071474       6.77830950      -0.30426317      -0.17017681      -0.19005315
Cd      -1.94961685       6.04736678       6.77537570      -0.53656952      -0.55994217      -0.16494307
Cd       2.07357208       5.91848861       6.93984556       0.28003650       0.50706945      -1.37101865
Cd       6.23754326       5.95865840       6.73912380      -0.12657127       0.22894116      -0.01448812
Cd      -4.13789299       9.62846582       6.73956664      -0.15009623      -0.93528223       0.56430812
Cd       0.02436667       9.49637659       6.71533425      -0.11931153      -0.20341900      -0.44401030
Cd       4.06963153       9.60955574       6.67215921       0.23882301      -0.28679720       0.14086471
Cd       2.05822164       1.17532658       3.36262659       0.34894805       0.29338402      -0.26383961
Cd       6.34249001       1.21668795       3.39317374      -1.10702374      -0.13338761       0.22478482
Cd      10.32588720       1.20959758       3.37793816       0.06175675      -0.10236686       0.30464325
Cd       0.12736140       4.81195343       3.42948481      -0.21489605       0.07331026      -0.50869921
Cd       4.12124754       4.79759286       3.39211767       0.37351546      -0.63319537       0.33062850
Cd       8.27498286       4.69155990       3.39528991      -0.20464710       1.02087537      -0.11290559
Cd      -2.05715592       8.37485478       3.38138890       0.45796708       1.10509466       0.27160918
Cd       2.05758477       8.19111339       3.19792542      -0.55195922       2.41335042       1.06742742
Cd       6.07324508       8.49670454       3.32471764       1.16829757      -1.02947663       0.49466780
Cd       2.06170281       1.43210460      10.09152753      -0.08682552      -1.38487311       0.06249140
Cd       6.19599735       1.20352023      10.18870011      -0.24257130      -0.24771385      -0.00608025
Cd      10.43556762       1.35068028      10.15055071      -0.76845091      -1.23358826       0.31206489
Cd      -0.16978190       4.75965127      10.14432229       0.78851842       0.06307363       0.27281169
Cd       4.11305849       4.80804545      10.12245781      -0.36549613       0.15401779      -0.04190753
Cd       8.07727723       4.64552782      10.14091525       0.44763443       0.60984132      -0.22052656
Cd      -1.95839671       8.23523787      10.16327058      -0.33177458       0.49640617      -0.29417582
Cd       2.00934598       8.33800459      10.17114906       0.43347637       0.48131907      -1.20753666
Cd       6.13840716       8.38565760      10.08157162       1.62737948      -0.67433811       0.39571121
S        0.00013873       2.37984781       2.52721676       0.02719074       0.43439821       0.24939892
S        4.13907841       2.42296464       2.39685977      -0.02985147      -0.15470991       1.76623166
S        8.25049258       2.38806822       2.58381204       0.82940112       0.28644798      -0.50810703
S       -2.01445026       6.12657804       2.65808855      -0.02260898      -1.70982671      -0.67129347
S        2.24620126       6.05301971       2.43779908      -0.85289421      -1.81548674       0.28656437
S        6.06412043       5.96747073       2.44118057       1.09413129       0.31235346       0.39264782
S       -4.09418577       9.56699733       2.49484150      -0.35185957      -0.12751701       1.10807367
S        0.01380153       9.72949242       2.37165509       0.05733809      -1.26150516       0.54203540
S        4.12918566       9.54989265       2.54013889      -1.02103068       0.63612228      -0.30907228
S       -0.00532572       2.38641164       9.25785693       0.17662949       0.69918359       0.01316604
S        4.05919247       2.48172058       9.38768932       1.07808944      -0.33860664      -1.19543080
S        8.28490152       2.38298864       9.30468523      -0.01931660      -0.63219365      -0.07144962
S       -2.07612137       5.93355673       9.24299130      -0.79232798      -0.26484839       0.24450596
S        2.04272497       5.99598133       9.28231040      -0.39729593      -0.36010746       1.33584354
S        6.13063672       5.87915682       9.27868605       0.42836517       0.71145542      -0.17913332
S       -4.01476085       9.52070391       9.29401536      -0.36229626       0.29446687       0.14352474
S       -0.01609517       9.50369919       9.15251983       0.24182152       0.37358103       0.96550974
S        4.33603242       9.48688053       9.17128806      -2.13583751       1.19267002       0.01575626
S        2.03868341       1.15538781       5.88856445      -0.87177863       0.32497521      -0.36444042
S        6.19928369       1.09074961       5.88584084      -0.35921766       0.86200226       0.23008434
S       10.28573598       1.23111133       5.95709102       0.58548005       0.49647748      -0.29528860
S        0.04473723       4.79773791       5.92809133       0.13391595       0.47286270      -0.27937100
S        4.13466802       4.73211837       5.96517310      -0.12403335       0.55187117      -0.40589811
S        8.25549856       4.77054612       5.90155786       0.43380038       0.13751413       0.17673851
S       -2.11137026       8.30151504       5.94226237       0.10805702       0.77856280      -0.44389598
S        2.08329275       8.35887595       5.87662349      -0.14834885      -0.71085863      -0.47212741
S        6.16049102       8.36982888       5.90523829       0.24627261      -0.03041798      -0.25066923
S        2.03787092       1.23460852      12.54901616      -0.21577895      -0.30732966       0.56149109
S        6.13526221       1.11655497      12.71996309       0.26718947       0.82004373      -0.23436772
S       10.39259323       0.96694661      12.69510268      -0.31630645       2.80263032      -0.70776080
S       -0.11494737       4.92838047      12.77324170       1.25444412      -1.51994749      -1.08705012
S        4.23268479       4.76640010      12.59076813      -1.15042664       0.22054125       0.05921639
S        8.27872817       4.75899203      12.62222328       0.11165818       0.83138109      -0.14488667
S       -2.03587270       8.34827830      12.64177861      -0.73024817      -0.01637558       0.14834872
S        2.05586780       8.38466198      12.55121086       0.92692969      -0.98836875       0.71741225
S        6.07094938       8.31612943      12.64465513       1.11672399       0.12711979      -0.29953711
