  72  72   0   0
  0.2550973E+02  0.1250651E-08  0.1250651E-08  0.1355924E-08  0.5000000E-15
  1.000000000000000E-004
  CAR 
 unknown system                          
      9.53116899    -12.06368067  301      1.40160788      1.00000000
    -12.064  0.0000E+00  0.0000E+00
    -11.992  0.0000E+00  0.0000E+00
    -11.920  0.0000E+00  0.0000E+00
    -11.848  0.0000E+00  0.0000E+00
    -11.776  0.0000E+00  0.0000E+00
    -11.704  0.0000E+00  0.0000E+00
    -11.632  0.0000E+00  0.0000E+00
    -11.560  0.0000E+00  0.0000E+00
    -11.488  0.0000E+00  0.0000E+00
    -11.416  0.0000E+00  0.0000E+00
    -11.344  0.1842E-11  0.1326E-12
    -11.272  0.1109E-05  0.7980E-07
    -11.200  0.1199E-01  0.8635E-03
    -11.128  0.2698E+01  0.1951E+00
    -11.056  0.1870E+02  0.1541E+01
    -10.984  0.6354E+01  0.1998E+01
    -10.912  0.8041E+01  0.2577E+01
    -10.840  0.5820E+02  0.6767E+01
    -10.768  0.1251E+03  0.1577E+02
    -10.696  0.1335E+03  0.2538E+02
    -10.624  0.2745E+03  0.4514E+02
    -10.552  0.2843E+03  0.6560E+02
    -10.480  0.8768E+02  0.7191E+02
    -10.408  0.1200E+01  0.7200E+02
    -10.336  0.4118E-03  0.7200E+02
    -10.264  0.2800E-08  0.7200E+02
    -10.192  0.0000E+00  0.7200E+02
    -10.120  0.0000E+00  0.7200E+02
    -10.048  0.0000E+00  0.7200E+02
     -9.976  0.0000E+00  0.7200E+02
     -9.904  0.0000E+00  0.7200E+02
     -9.832  0.0000E+00  0.7200E+02
     -9.760  0.0000E+00  0.7200E+02
     -9.688  0.0000E+00  0.7200E+02
     -9.616  0.0000E+00  0.7200E+02
     -9.544  0.0000E+00  0.7200E+02
     -9.472  0.0000E+00  0.7200E+02
     -9.400  0.0000E+00  0.7200E+02
     -9.328  0.0000E+00  0.7200E+02
     -9.256  0.0000E+00  0.7200E+02
     -9.184  0.0000E+00  0.7200E+02
     -9.112  0.0000E+00  0.7200E+02
     -9.040  0.0000E+00  0.7200E+02
     -8.968  0.0000E+00  0.7200E+02
     -8.896  0.0000E+00  0.7200E+02
     -8.824  0.0000E+00  0.7200E+02
     -8.752  0.0000E+00  0.7200E+02
     -8.680  0.0000E+00  0.7200E+02
     -8.609  0.0000E+00  0.7200E+02
     -8.537  0.0000E+00  0.7200E+02
     -8.465  0.0000E+00  0.7200E+02
     -8.393  0.0000E+00  0.7200E+02
     -8.321  0.0000E+00  0.7200E+02
     -8.249  0.0000E+00  0.7200E+02
     -8.177  0.0000E+00  0.7200E+02
     -8.105  0.0000E+00  0.7200E+02
     -8.033  0.0000E+00  0.7200E+02
     -7.961  0.0000E+00  0.7200E+02
     -7.889  0.0000E+00  0.7200E+02
     -7.817  0.0000E+00  0.7200E+02
     -7.745  0.0000E+00  0.7200E+02
     -7.673  0.0000E+00  0.7200E+02
     -7.601  0.0000E+00  0.7200E+02
     -7.529  0.0000E+00  0.7200E+02
     -7.457  0.0000E+00  0.7200E+02
     -7.385  0.0000E+00  0.7200E+02
     -7.313  0.0000E+00  0.7200E+02
     -7.241  0.0000E+00  0.7200E+02
     -7.169  0.0000E+00  0.7200E+02
     -7.097  0.0000E+00  0.7200E+02
     -7.025  0.0000E+00  0.7200E+02
     -6.953  0.0000E+00  0.7200E+02
     -6.881  0.0000E+00  0.7200E+02
     -6.809  0.7403E-13  0.7200E+02
     -6.737  0.1230E-06  0.7200E+02
     -6.665  0.3786E-02  0.7200E+02
     -6.593  0.2601E+01  0.7219E+02
     -6.521  0.7290E+02  0.7743E+02
     -6.449  0.3543E+03  0.1029E+03
     -6.377  0.6352E+03  0.1487E+03
     -6.305  0.6699E+03  0.1969E+03
     -6.233  0.4672E+03  0.2305E+03
     -6.161  0.5874E+03  0.2728E+03
     -6.089  0.7493E+03  0.3267E+03
     -6.017  0.6198E+03  0.3713E+03
     -5.945  0.1318E+03  0.3808E+03
     -5.873  0.2299E+03  0.3974E+03
     -5.801  0.6421E+02  0.4020E+03
     -5.729  0.1392E+02  0.4030E+03
     -5.657  0.2053E+02  0.4045E+03
     -5.585  0.1594E+03  0.4160E+03
     -5.513  0.2064E+03  0.4308E+03
     -5.441  0.1649E+02  0.4320E+03
     -5.369  0.4731E-01  0.4320E+03
     -5.297  0.3096E-05  0.4320E+03
     -5.225  0.3788E-11  0.4320E+03
     -5.153  0.0000E+00  0.4320E+03
     -5.081  0.0000E+00  0.4320E+03
     -5.009  0.0000E+00  0.4320E+03
     -4.937  0.0000E+00  0.4320E+03
     -4.865  0.0000E+00  0.4320E+03
     -4.793  0.0000E+00  0.4320E+03
     -4.721  0.0000E+00  0.4320E+03
     -4.649  0.0000E+00  0.4320E+03
     -4.577  0.0000E+00  0.4320E+03
     -4.505  0.0000E+00  0.4320E+03
     -4.434  0.0000E+00  0.4320E+03
     -4.362  0.0000E+00  0.4320E+03
     -4.290  0.0000E+00  0.4320E+03
     -4.218  0.0000E+00  0.4320E+03
     -4.146  0.0000E+00  0.4320E+03
     -4.074  0.0000E+00  0.4320E+03
     -4.002  0.0000E+00  0.4320E+03
     -3.930  0.0000E+00  0.4320E+03
     -3.858  0.0000E+00  0.4320E+03
     -3.786  0.0000E+00  0.4320E+03
     -3.714  0.0000E+00  0.4320E+03
     -3.642  0.0000E+00  0.4320E+03
     -3.570  0.0000E+00  0.4320E+03
     -3.498  0.0000E+00  0.4320E+03
     -3.426  0.0000E+00  0.4320E+03
     -3.354  0.3177E-09  0.4320E+03
     -3.282  0.4602E-04  0.4320E+03
     -3.210  0.1241E+00  0.4320E+03
     -3.138  0.7697E+01  0.4326E+03
     -3.066  0.1795E+02  0.4339E+03
     -2.994  0.2007E+01  0.4340E+03
     -2.922  0.2551E-01  0.4340E+03
     -2.850  0.6767E+01  0.4345E+03
     -2.778  0.7609E+02  0.4400E+03
     -2.706  0.1287E+03  0.4492E+03
     -2.634  0.6448E+02  0.4539E+03
     -2.562  0.2696E+01  0.4541E+03
     -2.490  0.3930E+02  0.4569E+03
     -2.418  0.6618E+02  0.4617E+03
     -2.346  0.5848E+02  0.4659E+03
     -2.274  0.2304E+03  0.4825E+03
     -2.202  0.4888E+02  0.4860E+03
     -2.130  0.3419E+00  0.4860E+03
     -2.058  0.5149E-04  0.4860E+03
     -1.986  0.4891E-02  0.4860E+03
     -1.914  0.2394E+01  0.4862E+03
     -1.842  0.3397E+02  0.4886E+03
     -1.770  0.8195E+02  0.4945E+03
     -1.698  0.9697E+02  0.5015E+03
     -1.626  0.6970E+01  0.5020E+03
     -1.554  0.1388E-01  0.5020E+03
     -1.482  0.1934E-01  0.5020E+03
     -1.410  0.8379E+01  0.5026E+03
     -1.338  0.1096E+03  0.5105E+03
     -1.266  0.1037E+03  0.5180E+03
     -1.194  0.8170E+02  0.5238E+03
     -1.122  0.2960E+02  0.5260E+03
     -1.050  0.4485E+00  0.5260E+03
     -0.978  0.1556E-03  0.5260E+03
     -0.906  0.1161E-08  0.5260E+03
     -0.834  0.4139E-04  0.5260E+03
     -0.762  0.1987E+00  0.5260E+03
     -0.690  0.2094E+02  0.5275E+03
     -0.618  0.7630E+02  0.5330E+03
     -0.546  0.1421E+02  0.5340E+03
     -0.474  0.4360E+02  0.5372E+03
     -0.402  0.1489E+03  0.5479E+03
     -0.330  0.2918E+02  0.5500E+03
     -0.258  0.2665E+02  0.5519E+03
     -0.187  0.2185E+03  0.5676E+03
     -0.115  0.8705E+02  0.5739E+03
     -0.043  0.4947E+01  0.5743E+03
      0.029  0.1549E+03  0.5854E+03
      0.101  0.2646E+03  0.6045E+03
      0.173  0.2134E+02  0.6060E+03
      0.245  0.1263E+01  0.6061E+03
      0.317  0.5652E+02  0.6102E+03
      0.389  0.1239E+03  0.6191E+03
      0.461  0.3888E+02  0.6219E+03
      0.533  0.2039E+02  0.6233E+03
      0.605  0.1137E+03  0.6315E+03
      0.677  0.3678E+02  0.6342E+03
      0.749  0.5647E+02  0.6382E+03
      0.821  0.5033E+02  0.6419E+03
      0.893  0.1932E+01  0.6420E+03
      0.965  0.2514E-01  0.6420E+03
      1.037  0.4132E+01  0.6423E+03
      1.109  0.3841E+02  0.6451E+03
      1.181  0.3807E+02  0.6478E+03
      1.253  0.2714E+01  0.6480E+03
      1.325  0.6028E-02  0.6480E+03
      1.397  0.2714E-06  0.6480E+03
      1.469  0.2159E-12  0.6480E+03
      1.541  0.0000E+00  0.6480E+03
      1.613  0.0000E+00  0.6480E+03
      1.685  0.0000E+00  0.6480E+03
      1.757  0.0000E+00  0.6480E+03
      1.829  0.0000E+00  0.6480E+03
      1.901  0.0000E+00  0.6480E+03
      1.973  0.6169E-14  0.6480E+03
      2.045  0.1428E-07  0.6480E+03
      2.117  0.6557E-03  0.6480E+03
      2.189  0.5834E+00  0.6480E+03
      2.261  0.1334E+02  0.6490E+03
      2.333  0.1328E+02  0.6500E+03
      2.405  0.5753E+00  0.6500E+03
      2.477  0.6396E-03  0.6500E+03
      2.549  0.1377E-07  0.6500E+03
      2.621  0.6169E-14  0.6500E+03
      2.693  0.0000E+00  0.6500E+03
      2.765  0.0000E+00  0.6500E+03
      2.837  0.0000E+00  0.6500E+03
      2.909  0.0000E+00  0.6500E+03
      2.981  0.0000E+00  0.6500E+03
      3.053  0.0000E+00  0.6500E+03
      3.125  0.0000E+00  0.6500E+03
      3.197  0.0000E+00  0.6500E+03
      3.269  0.0000E+00  0.6500E+03
      3.341  0.0000E+00  0.6500E+03
      3.413  0.0000E+00  0.6500E+03
      3.485  0.0000E+00  0.6500E+03
      3.557  0.1542E-14  0.6500E+03
      3.629  0.3249E-08  0.6500E+03
      3.701  0.2362E-03  0.6500E+03
      3.773  0.3326E+00  0.6500E+03
      3.845  0.1382E+02  0.6510E+03
      3.917  0.4889E+02  0.6545E+03
      3.988  0.1989E+02  0.6560E+03
      4.060  0.4242E+00  0.6560E+03
      4.132  0.2244E-03  0.6560E+03
      4.204  0.2243E-08  0.6560E+03
      4.276  0.4127E-06  0.6560E+03
      4.348  0.1145E-01  0.6560E+03
      4.420  0.6290E+01  0.6565E+03
      4.492  0.9410E+02  0.6632E+03
      4.564  0.6450E+02  0.6679E+03
      4.636  0.1814E+01  0.6680E+03
      4.708  0.5087E+01  0.6684E+03
      4.780  0.1448E+03  0.6788E+03
      4.852  0.1742E+03  0.6913E+03
      4.924  0.9369E+01  0.6920E+03
      4.996  0.1220E+01  0.6921E+03
      5.068  0.5568E+02  0.6961E+03
      5.140  0.1012E+03  0.7034E+03
      5.212  0.8629E+01  0.7040E+03
      5.284  0.2110E-01  0.7040E+03
      5.356  0.6824E+00  0.7040E+03
      5.428  0.3488E+02  0.7066E+03
      5.500  0.6909E+02  0.7115E+03
      5.572  0.6476E+01  0.7120E+03
      5.644  0.1755E-01  0.7120E+03
      5.716  0.3206E+00  0.7120E+03
      5.788  0.1702E+02  0.7132E+03
      5.860  0.3483E+02  0.7158E+03
      5.932  0.3382E+01  0.7160E+03
      6.004  0.4516E-01  0.7160E+03
      6.076  0.9327E+01  0.7167E+03
      6.148  0.7344E+02  0.7220E+03
      6.220  0.2795E+02  0.7240E+03
      6.292  0.3912E+00  0.7240E+03
      6.364  0.1864E+00  0.7240E+03
      6.436  0.2868E+02  0.7261E+03
      6.508  0.2414E+03  0.7435E+03
      6.580  0.2164E+03  0.7590E+03
      6.652  0.1343E+02  0.7600E+03
      6.724  0.2522E-01  0.7600E+03
      6.796  0.9511E-06  0.7600E+03
      6.868  0.6293E-12  0.7600E+03
      6.940  0.7403E-13  0.7600E+03
      7.012  0.1484E-06  0.7600E+03
      7.084  0.5039E-02  0.7600E+03
      7.156  0.3422E+01  0.7602E+03
      7.228  0.7488E+02  0.7656E+03
      7.300  0.1825E+03  0.7788E+03
      7.372  0.7097E+02  0.7839E+03
      7.444  0.1809E+01  0.7840E+03
      7.516  0.2417E+02  0.7858E+03
      7.588  0.1113E+03  0.7938E+03
      7.660  0.3066E+02  0.7960E+03
      7.732  0.3936E+00  0.7960E+03
      7.804  0.4720E+00  0.7960E+03
      7.876  0.2371E+02  0.7977E+03
      7.948  0.9002E+02  0.8042E+03
      8.020  0.2446E+02  0.8060E+03
      8.092  0.1256E+01  0.8061E+03
      8.163  0.5203E+02  0.8098E+03
      8.235  0.1218E+03  0.8186E+03
      8.307  0.4428E+02  0.8218E+03
      8.379  0.3206E+01  0.8220E+03
      8.451  0.8053E+01  0.8226E+03
      8.523  0.7575E+02  0.8280E+03
      8.595  0.5167E+02  0.8318E+03
      8.667  0.3412E+01  0.8320E+03
      8.739  0.1244E-01  0.8320E+03
      8.811  0.1115E-05  0.8320E+03
      8.883  0.1842E-11  0.8320E+03
      8.955  0.0000E+00  0.8320E+03
      9.027  0.0000E+00  0.8320E+03
      9.099  0.0000E+00  0.8320E+03
      9.171  0.0000E+00  0.8320E+03
      9.243  0.0000E+00  0.8320E+03
      9.315  0.0000E+00  0.8320E+03
      9.387  0.0000E+00  0.8320E+03
      9.459  0.0000E+00  0.8320E+03
      9.531  0.0000E+00  0.8320E+03
