       N       E                     dE             d eps       ncg     rms          rms(c)
DAV:   1     0.410955251419E+04    0.41096E+04   -0.27113E+05   832   0.117E+03
DAV:   2     0.472170725167E+02   -0.40623E+04   -0.39059E+04   928   0.329E+02
DAV:   3    -0.234127724189E+03   -0.28134E+03   -0.27889E+03   960   0.841E+01
DAV:   4    -0.238952415384E+03   -0.48247E+01   -0.48106E+01   928   0.103E+01
DAV:   5    -0.239057488442E+03   -0.10507E+00   -0.10504E+00   960   0.142E+00    0.460E+01
DAV:   6    -0.218654725530E+03    0.20403E+02   -0.42606E+01  1056   0.159E+01    0.368E+01
DAV:   7    -0.218543336009E+03    0.11139E+00   -0.19927E+01   928   0.581E+00    0.139E+01
DAV:   8    -0.218266951997E+03    0.27638E+00   -0.31186E+00   992   0.407E+00    0.285E+00
DAV:   9    -0.218261469244E+03    0.54828E-02   -0.43106E-01   928   0.199E+00    0.881E-01
DAV:  10    -0.218260052391E+03    0.14169E-02   -0.25084E-02   928   0.456E-01    0.442E-01
DAV:  11    -0.218262793085E+03   -0.27407E-02   -0.49870E-03   960   0.123E-01    0.237E-01
DAV:  12    -0.218264561873E+03   -0.17688E-02   -0.15072E-03   896   0.562E-02    0.768E-02
DAV:  13    -0.218264795173E+03   -0.23330E-03   -0.36120E-04   960   0.434E-02    0.356E-02
DAV:  14    -0.218264809613E+03   -0.14440E-04   -0.68951E-05   896   0.213E-02    0.123E-02
DAV:  15    -0.218264814260E+03   -0.46467E-05   -0.11730E-05   896   0.415E-03    0.486E-03
DAV:  16    -0.218264813245E+03    0.10150E-05   -0.17163E-06   672   0.318E-03    0.214E-03
DAV:  17    -0.218264812755E+03    0.48997E-06   -0.41256E-07   576   0.878E-04
   1 F= -.21826481E+03 E0= -.21826481E+03  d E =-.160807E-14
