<?xml version="1.0" encoding="ISO-8859-1"?>
<modeling>
 <generator>
  <i name="program" type="string">vasp </i>
  <i name="version" type="string">6.4.2  </i>
  <i name="subversion" type="string">20Jul23 (build Sep 17 2025 15:35:10) complex                          parallel </i>
  <i name="platform" type="string">LinuxIFC </i>
  <i name="date" type="string">2025 10 09 </i>
  <i name="time" type="string">12:39:51 </i>
 </generator>
 <incar>
  <i type="int" name="ISTART">     0</i>
  <i type="string" name="PREC">Accurate</i>
  <i type="int" name="ICHARG">     2</i>
  <i type="int" name="NELM">   100</i>
  <i name="EDIFF">      0.00000100</i>
  <i name="ENCUT">    400.00000000</i>
  <i type="logical" name="LREAL"> F  </i>
  <i type="int" name="ISMEAR">     0</i>
  <i name="SIGMA">      0.05000000</i>
  <i type="logical" name="LWAVE"> F  </i>
  <i type="logical" name="LCHARG"> F  </i>
  <i type="string" name="GGA">PE</i>
 </incar>
 <primitive_cell>
  <structure name="primitive_cell" >
   <crystal>
    <varray name="basis" >
     <v>       2.08441905      -3.61031970       0.00000000 </v>
     <v>       2.08441905       3.61031970       0.00000000 </v>
     <v>       0.00000000       0.00000000       6.77961741 </v>
    </varray>
    <i name="volume">    102.03892544 </i>
    <varray name="rec_basis" >
     <v>       0.23987499      -0.13849189       0.00000000 </v>
     <v>       0.23987499       0.13849189       0.00000000 </v>
     <v>       0.00000000       0.00000000       0.14750095 </v>
    </varray>
   </crystal>
   <varray name="positions" >
    <v>       0.66666667       0.33333333       0.50022437 </v>
    <v>       0.33333333       0.66666667       0.00022437 </v>
    <v>       0.66666667       0.33333333       0.87677563 </v>
    <v>       0.33333333       0.66666667       0.37677563 </v>
   </varray>
  </structure>
  <varray name="primitive_index" >
   <v type="int" >        1 </v>
   <v type="int" >       24 </v>
   <v type="int" >       50 </v>
   <v type="int" >       51 </v>
  </varray>
 </primitive_cell>
 <kpoints>
  <generation param="Gamma">
   <v type="int" name="divisions">       1        1        1 </v>
   <v name="usershift">      0.00000000       0.00000000       0.00000000 </v>
   <v name="genvec1">      1.00000000       0.00000000       0.00000000 </v>
   <v name="genvec2">      0.00000000       1.00000000       0.00000000 </v>
   <v name="genvec3">      0.00000000       0.00000000       1.00000000 </v>
   <v name="shift">      0.00000000       0.00000000       0.00000000 </v>
  </generation>
  <varray name="kpointlist" >
   <v>       0.00000000       0.00000000       0.00000000 </v>
  </varray>
  <varray name="weights" >
   <v>       1.00000000 </v>
  </varray>
 </kpoints>
 <parameters>
  <separator name="general" >
   <i type="string" name="SYSTEM">unknown system</i>
   <i type="logical" name="LCOMPAT"> F  </i>
  </separator>
  <separator name="electronic" >
   <i type="string" name="PREC">accura</i>
   <i name="ENMAX">    400.00000000</i>
   <i name="ENAUG">    456.10600000</i>
   <i name="EDIFF">      0.00000100</i>
   <i type="int" name="IALGO">    38</i>
   <i type="int" name="IWAVPR">    10</i>
   <i type="int" name="NBANDS">   416</i>
   <i type="int" name="NBANDSLOW">    -1</i>
   <i type="int" name="NBANDSHIGH">    -1</i>
   <i name="NELECT">    648.00000000</i>
   <i type="int" name="TURBO">     0</i>
   <i type="int" name="IRESTART">     0</i>
   <i type="int" name="NREBOOT">     0</i>
   <i type="int" name="NMIN">     0</i>
   <i name="EREF">      0.00000000</i>
   <separator name="electronic smearing" >
    <i type="int" name="ISMEAR">     0</i>
    <i name="SIGMA">      0.05000000</i>
    <i name="KSPACING">      0.50000000</i>
    <i type="logical" name="KGAMMA"> T  </i>
    <i type="logical" name="KBLOWUP"> T  </i>
   </separator>
   <separator name="electronic projectors" >
    <i type="logical" name="LREAL"> F  </i>
    <v name="ROPT">      0.00000000      0.00000000</v>
    <i type="int" name="LMAXPAW">  -100</i>
    <i type="int" name="LMAXMIX">     2</i>
    <i type="logical" name="NLSPLINE"> F  </i>
   </separator>
   <separator name="electronic startup" >
    <i type="int" name="ISTART">     0</i>
    <i type="int" name="ICHARG">     2</i>
    <i type="int" name="INIWAV">     1</i>
   </separator>
   <separator name="electronic spin" >
    <i type="int" name="ISPIN">     1</i>
    <i type="logical" name="LNONCOLLINEAR"> F  </i>
    <v name="MAGMOM">      1.00000000      1.00000000      1.00000000      1.00000000      1.00000000      1.00000000      1.00000000      1.00000000      1.00000000      1.00000000      1.00000000      1.00000000      1.00000000      1.00000000      1.00000000      1.00000000      1.00000000      1.00000000      1.00000000      1.00000000
      1.00000000      1.00000000      1.00000000      1.00000000      1.00000000      1.00000000      1.00000000      1.00000000      1.00000000      1.00000000      1.00000000      1.00000000      1.00000000      1.00000000      1.00000000      1.00000000      1.00000000      1.00000000      1.00000000      1.00000000
      1.00000000      1.00000000      1.00000000      1.00000000      1.00000000      1.00000000      1.00000000      1.00000000      1.00000000      1.00000000      1.00000000      1.00000000      1.00000000      1.00000000      1.00000000      1.00000000      1.00000000      1.00000000      1.00000000      1.00000000
      1.00000000      1.00000000      1.00000000      1.00000000      1.00000000      1.00000000      1.00000000      1.00000000      1.00000000      1.00000000      1.00000000      1.00000000</v>
    <i name="NUPDOWN">     -1.00000000</i>
    <i type="logical" name="LSORBIT"> F  </i>
    <v name="SAXIS">      0.00000000      0.00000000      1.00000000</v>
    <i type="logical" name="LSPIRAL"> F  </i>
    <v name="QSPIRAL">      0.00000000      0.00000000      0.00000000</v>
    <i type="logical" name="LZEROZ"> F  </i>
   </separator>
   <separator name="electronic exchange-correlation" >
    <i type="logical" name="LASPH"> F  </i>
    <i type="logical" name="LMETAGGA"> F  </i>
   </separator>
   <separator name="electronic convergence" >
    <i type="int" name="NELM">   100</i>
    <i type="int" name="NELMDL">    -5</i>
    <i type="int" name="NELMIN">     2</i>
    <i name="ENINI">    400.00000000</i>
    <separator name="electronic convergence detail" >
     <i type="logical" name="LDIAG"> T  </i>
     <i type="logical" name="LSUBROT"> F  </i>
     <i name="WEIMIN">      0.00000000</i>
     <i name="EBREAK">      0.00000000</i>
     <i name="DEPER">      0.30000000</i>
     <i type="int" name="NRMM">     4</i>
     <i name="TIME">      0.40000000</i>
    </separator>
   </separator>
   <separator name="electronic mixer" >
    <i name="AMIX">      0.40000000</i>
    <i name="BMIX">      1.00000000</i>
    <i name="AMIN">      0.10000000</i>
    <i name="AMIX_MAG">      1.60000000</i>
    <i name="BMIX_MAG">      1.00000000</i>
    <separator name="electronic mixer details" >
     <i type="int" name="IMIX">     4</i>
     <i type="logical" name="MIXFIRST"> F  </i>
     <i type="int" name="MAXMIX">   -45</i>
     <i name="WC">    100.00000000</i>
     <i type="int" name="INIMIX">     1</i>
     <i type="int" name="MIXPRE">     1</i>
     <i type="int" name="MREMOVE">     5</i>
    </separator>
   </separator>
   <separator name="electronic dipolcorrection" >
    <i type="logical" name="LDIPOL"> F  </i>
    <i type="logical" name="LMONO"> F  </i>
    <i type="int" name="IDIPOL">     0</i>
    <i name="EPSILON">      1.00000000</i>
    <v name="DIPOL">   -100.00000000   -100.00000000   -100.00000000</v>
    <i name="EFIELD">      0.00000000</i>
   </separator>
  </separator>
  <separator name="grids" >
   <i type="int" name="NGX">    84</i>
   <i type="int" name="NGY">    84</i>
   <i type="int" name="NGZ">    90</i>
   <i type="int" name="NGXF">   168</i>
   <i type="int" name="NGYF">   168</i>
   <i type="int" name="NGZF">   180</i>
   <i type="logical" name="ADDGRID"> F  </i>
  </separator>
  <separator name="ionic" >
   <i type="int" name="NSW">     0</i>
   <i type="int" name="IBRION">    -1</i>
   <i type="int" name="MDALGO">     0</i>
   <i type="int" name="ISIF">     2</i>
   <i name="PSTRESS">      0.00000000</i>
   <i name="EDIFFG">      0.00001000</i>
   <i type="int" name="NFREE">     0</i>
   <i name="POTIM">      0.50000000</i>
   <i name="SMASS">     -3.00000000</i>
   <i name="SCALEE">      1.00000000</i>
  </separator>
  <separator name="ionic md" >
   <i name="TEBEG">      0.00010000</i>
   <i name="TEEND">      0.00010000</i>
   <i type="int" name="NBLOCK">     1</i>
   <i type="int" name="KBLOCK">     1</i>
   <i type="int" name="NPACO">   256</i>
   <i name="APACO">     10.00000000</i>
  </separator>
  <separator name="symmetry" >
   <i type="int" name="ISYM">     2</i>
   <i name="SYMPREC">      0.00001000</i>
  </separator>
  <separator name="dos" >
   <i type="int" name="LORBIT">     0</i>
   <v name="RWIGS">     -1.00000000     -1.00000000</v>
   <i type="int" name="NEDOS">   301</i>
   <i name="EMIN">     10.00000000</i>
   <i name="EMAX">    -10.00000000</i>
   <i name="EFERMI">      0.00000000</i>
  </separator>
  <separator name="writing" >
   <i type="int" name="NWRITE">     2</i>
   <i type="logical" name="LWAVE"> F  </i>
   <i type="logical" name="LDOWNSAMPLE"> F  </i>
   <i type="logical" name="LCHARG"> F  </i>
   <i type="logical" name="LPARD"> F  </i>
   <i type="logical" name="LVTOT"> F  </i>
   <i type="logical" name="LVHAR"> F  </i>
   <i type="logical" name="LELF"> F  </i>
   <i type="logical" name="LOPTICS"> F  </i>
   <v name="STM">      0.00000000      0.00000000      0.00000000      0.00000000      0.00000000      0.00000000      0.00000000</v>
  </separator>
  <separator name="performance" >
   <i type="int" name="NPAR">    32</i>
   <i type="int" name="NSIM">     4</i>
   <i type="int" name="NBLK">    -1</i>
   <i type="logical" name="LPLANE"> T  </i>
   <i type="logical" name="LSCALAPACK"> T  </i>
   <i type="logical" name="LSCAAWARE"> F  </i>
   <i type="logical" name="LSCALU"> F  </i>
   <i type="logical" name="LASYNC"> F  </i>
   <i type="logical" name="LORBITALREAL"> F  </i>
  </separator>
  <separator name="miscellaneous" >
   <i type="int" name="IDIOT">     3</i>
   <i type="int" name="PHON_NSTRUCT">    -1</i>
   <i type="logical" name="LMUSIC"> F  </i>
   <v name="POMASS">    112.41100000     32.06600000</v>
   <v name="DARWINR">      0.00000000      0.00000000</v>
   <v name="DARWINV">      1.00000000      1.00000000</v>
   <i type="logical" name="LCORR"> T  </i>
  </separator>
  <i type="logical" name="GGA_COMPAT"> T  </i>
  <i type="logical" name="LBERRY"> F  </i>
  <i type="int" name="ICORELEVEL">     0</i>
  <i type="logical" name="LDAU"> F  </i>
  <i type="int" name="I_CONSTRAINED_M">     0</i>
  <separator name="electronic exchange-correlation" >
   <i type="string" name="GGA">PE</i>
   <i type="int" name="VOSKOWN">     0</i>
   <i type="logical" name="LHFCALC"> F  </i>
   <i type="string" name="PRECFOCK"></i>
   <i type="logical" name="LSYMGRAD"> F  </i>
   <i type="logical" name="LHFONE"> F  </i>
   <i type="logical" name="LRHFCALC"> F  </i>
   <i type="logical" name="LTHOMAS"> F  </i>
   <i type="logical" name="LMODELHF"> F  </i>
   <i type="logical" name="LFOCKACE"> F  </i>
   <i name="ENCUT4O">     -1.00000000</i>
   <i type="int" name="EXXOEP">     0</i>
   <i type="int" name="FOURORBIT">     0</i>
   <i name="AEXX">      0.00000000</i>
   <i name="HFALPHA">      0.00000000</i>
   <i name="MCALPHA">      0.00000000</i>
   <i name="ALDAX">      1.00000000</i>
   <i name="AGGAX">      1.00000000</i>
   <i name="ALDAC">      1.00000000</i>
   <i name="AGGAC">      1.00000000</i>
   <i type="int" name="NKREDX">     1</i>
   <i type="int" name="NKREDY">     1</i>
   <i type="int" name="NKREDZ">     1</i>
   <i type="logical" name="SHIFTRED"> F  </i>
   <i type="logical" name="ODDONLY"> F  </i>
   <i type="logical" name="EVENONLY"> F  </i>
   <i type="int" name="LMAXFOCK">     0</i>
   <i type="int" name="NMAXFOCKAE">     0</i>
   <i type="logical" name="LFOCKAEDFT"> F  </i>
   <i name="HFSCREEN">      0.00000000</i>
   <i name="HFSCREENC">      0.00000000</i>
   <i type="int" name="NBANDSGWLOW">     0</i>
  </separator>
  <separator name="vdW DFT" >
   <i type="logical" name="LUSE_VDW"> F  </i>
   <i type="int" name="IVDW_NL">     1</i>
   <i type="logical" name="LSPIN_VDW"> F  </i>
   <i name="Zab_VDW">     -0.84910000</i>
   <i name="PARAM1">      0.12340000</i>
   <i name="PARAM2">      1.00000000</i>
   <i name="PARAM3">      0.00000000</i>
  </separator>
  <separator name="model GW" >
   <i type="int" name="MODEL_GW">     0</i>
   <i name="MODEL_EPS0">     15.30583882</i>
   <i name="MODEL_ALPHA">      1.00000000</i>
  </separator>
  <separator name="linear response parameters" >
   <i type="logical" name="LEPSILON"> F  </i>
   <i type="logical" name="LRPA"> F  </i>
   <i type="logical" name="LNABLA"> F  </i>
   <i type="logical" name="LVEL"> F  </i>
   <i name="CSHIFT">      0.10000000</i>
   <i name="OMEGAMAX">     -1.00000000</i>
   <i name="DEG_THRESHOLD">      0.00200000</i>
   <i name="RTIME">     -0.10000000</i>
   <i name="WPLASMAI">      0.00000000</i>
   <v name="DFIELD">      0.00000000      0.00000000      0.00000000</v>
   <v name="WPLASMA">      0.00000000      0.00000000      0.00000000      0.00000000      0.00000000      0.00000000      0.00000000      0.00000000      0.00000000</v>
  </separator>
  <separator name="orbital magnetization" >
   <i type="logical" name="NUCIND"> F  </i>
   <v name="MAGPOS">      0.00000000      0.00000000      0.00000000</v>
   <i type="logical" name="LNICSALL"> T  </i>
   <i type="logical" name="ORBITALMAG"> F  </i>
   <i type="logical" name="LMAGBLOCH"> F  </i>
   <i type="logical" name="LCHIMAG"> F  </i>
   <i type="logical" name="LGAUGE"> T  </i>
   <i type="int" name="MAGATOM">     0</i>
   <v name="MAGDIPOL">      0.00000000      0.00000000      0.00000000</v>
   <v name="AVECCONST">      0.00000000      0.00000000      0.00000000</v>
  </separator>
  <separator name="response functions" >
   <i type="logical" name="LALL_IN_ONE"> F  </i>
   <i type="int" name="IALL_IN_ONE">    -1</i>
   <i type="int" name="NBANDS_WAVE">    -1</i>
   <i type="logical" name="LFINITE_TEMPERATURE"> F  </i>
   <i type="logical" name="LADDER"> F  </i>
   <i type="logical" name="LRPAFORCE"> F  </i>
   <i type="logical" name="LFXC"> F  </i>
   <i type="logical" name="LHARTREE"> T  </i>
   <i type="int" name="IBSE">     0</i>
   <v type="int" name="KPOINT">    -1     0     0     0</v>
   <i type="logical" name="LTCTC"> F  </i>
   <i type="logical" name="LTCTE"> F  </i>
   <i type="logical" name="LTETE"> F  </i>
   <i type="logical" name="LTRIPLET"> F  </i>
   <i type="logical" name="LFXCEPS"> F  </i>
   <i type="logical" name="LFXHEG"> F  </i>
   <i type="int" name="NATURALO">     2</i>
   <i type="logical" name="LHOLEGF"> F  </i>
   <i type="logical" name="L2ORDER"> F  </i>
   <i type="logical" name="LDMP1"> F  </i>
   <i type="logical" name="LMP2LT"> F  </i>
   <i type="logical" name="LSMP2LT"> F  </i>
   <i type="logical" name="LGWLF"> F  </i>
   <i name="ENCUTGW">     -1.60000002</i>
   <i name="ENCUTGWSOFT">     -1.60000002</i>
   <i name="ENCUTLF">     -1.00000000</i>
   <i type="logical" name="LESF_SPLINES"> F  </i>
   <i type="int" name="LMAXMP2">    -1</i>
   <i name="SCISSOR">      0.00000000</i>
   <i type="int" name="NOMEGA">     0</i>
   <i type="int" name="NOMEGAR">     0</i>
   <i type="int" name="NBANDSGW">    -1</i>
   <i type="int" name="NBANDSO">    -1</i>
   <i type="int" name="NBANDSV">    -1</i>
   <i type="int" name="NELMGW">     1</i>
   <i type="int" name="NELMHF">     1</i>
   <i type="int" name="DIM">     3</i>
   <i type="int" name="IESPILON">     4</i>
   <i type="int" name="ANTIRES">     0</i>
   <i name="OMEGAMAX">    -30.00000000</i>
   <i name="OMEGAMIN">    -30.00000000</i>
   <i name="OMEGATL">   -200.00000000</i>
   <i type="int" name="OMEGAGRID">     0</i>
   <i name="CSHIFT">     -0.10000000</i>
   <i type="logical" name="LSELFENERGY"> F  </i>
   <i type="logical" name="LSPECTRAL"> F  </i>
   <i type="logical" name="LSPECTRALGW"> F  </i>
   <i type="logical" name="LSINGLES"> F  </i>
   <i type="logical" name="LFERMIGW"> F  </i>
   <i type="logical" name="ODDONLYGW"> F  </i>
   <i type="logical" name="EVENONLYGW"> F  </i>
   <i type="int" name="NKREDLFX">     1</i>
   <i type="int" name="NKREDLFY">     1</i>
   <i type="int" name="NKREDLFZ">     1</i>
   <i type="int" name="MAXMEM">  2800</i>
   <i type="int" name="TELESCOPE">     0</i>
   <i type="int" name="NTAUPAR">    -1</i>
   <i type="int" name="NOMEGAPAR">    -1</i>
   <i name="DAMP_NEWTON">      0.80000001</i>
   <i name="LAMBDA">      1.00000000</i>
  </separator>
  <separator name="External order field" >
   <i name="OFIELD_KAPPA">      0.00000000</i>
   <v name="OFIELD_K">      0.00000000      0.00000000      0.00000000</v>
   <i name="OFIELD_Q6_NEAR">      0.00000000</i>
   <i name="OFIELD_Q6_FAR">      0.00000000</i>
   <i name="OFIELD_A">      0.00000000</i>
  </separator>
  <separator name="optional k-points parameters" >
   <i type="int" name="KPOINTS_OPT_MODE">     1</i>
   <i type="logical" name="LKPOINTS_OPT"> F  </i>
  </separator>
 </parameters>
 <atominfo>
  <atoms>      72 </atoms>
  <types>       2 </types>
  <array name="atoms" >
   <dimension dim="1">ion</dimension>
   <field type="string">element</field>
   <field type="int">atomtype</field>
   <set>
    <rc><c>Cd</c><c>   1</c></rc>
    <rc><c>Cd</c><c>   1</c></rc>
    <rc><c>Cd</c><c>   1</c></rc>
    <rc><c>Cd</c><c>   1</c></rc>
    <rc><c>Cd</c><c>   1</c></rc>
    <rc><c>Cd</c><c>   1</c></rc>
    <rc><c>Cd</c><c>   1</c></rc>
    <rc><c>Cd</c><c>   1</c></rc>
    <rc><c>Cd</c><c>   1</c></rc>
    <rc><c>Cd</c><c>   1</c></rc>
    <rc><c>Cd</c><c>   1</c></rc>
    <rc><c>Cd</c><c>   1</c></rc>
    <rc><c>Cd</c><c>   1</c></rc>
    <rc><c>Cd</c><c>   1</c></rc>
    <rc><c>Cd</c><c>   1</c></rc>
    <rc><c>Cd</c><c>   1</c></rc>
    <rc><c>Cd</c><c>   1</c></rc>
    <rc><c>Cd</c><c>   1</c></rc>
    <rc><c>Cd</c><c>   1</c></rc>
    <rc><c>Cd</c><c>   1</c></rc>
    <rc><c>Cd</c><c>   1</c></rc>
    <rc><c>Cd</c><c>   1</c></rc>
    <rc><c>Cd</c><c>   1</c></rc>
    <rc><c>Cd</c><c>   1</c></rc>
    <rc><c>Cd</c><c>   1</c></rc>
    <rc><c>Cd</c><c>   1</c></rc>
    <rc><c>Cd</c><c>   1</c></rc>
    <rc><c>Cd</c><c>   1</c></rc>
    <rc><c>Cd</c><c>   1</c></rc>
    <rc><c>Cd</c><c>   1</c></rc>
    <rc><c>Cd</c><c>   1</c></rc>
    <rc><c>Cd</c><c>   1</c></rc>
    <rc><c>Cd</c><c>   1</c></rc>
    <rc><c>Cd</c><c>   1</c></rc>
    <rc><c>Cd</c><c>   1</c></rc>
    <rc><c>Cd</c><c>   1</c></rc>
    <rc><c>S </c><c>   2</c></rc>
    <rc><c>S </c><c>   2</c></rc>
    <rc><c>S </c><c>   2</c></rc>
    <rc><c>S </c><c>   2</c></rc>
    <rc><c>S </c><c>   2</c></rc>
    <rc><c>S </c><c>   2</c></rc>
    <rc><c>S </c><c>   2</c></rc>
    <rc><c>S </c><c>   2</c></rc>
    <rc><c>S </c><c>   2</c></rc>
    <rc><c>S </c><c>   2</c></rc>
    <rc><c>S </c><c>   2</c></rc>
    <rc><c>S </c><c>   2</c></rc>
    <rc><c>S </c><c>   2</c></rc>
    <rc><c>S </c><c>   2</c></rc>
    <rc><c>S </c><c>   2</c></rc>
    <rc><c>S </c><c>   2</c></rc>
    <rc><c>S </c><c>   2</c></rc>
    <rc><c>S </c><c>   2</c></rc>
    <rc><c>S </c><c>   2</c></rc>
    <rc><c>S </c><c>   2</c></rc>
    <rc><c>S </c><c>   2</c></rc>
    <rc><c>S </c><c>   2</c></rc>
    <rc><c>S </c><c>   2</c></rc>
    <rc><c>S </c><c>   2</c></rc>
    <rc><c>S </c><c>   2</c></rc>
    <rc><c>S </c><c>   2</c></rc>
    <rc><c>S </c><c>   2</c></rc>
    <rc><c>S </c><c>   2</c></rc>
    <rc><c>S </c><c>   2</c></rc>
    <rc><c>S </c><c>   2</c></rc>
    <rc><c>S </c><c>   2</c></rc>
    <rc><c>S </c><c>   2</c></rc>
    <rc><c>S </c><c>   2</c></rc>
    <rc><c>S </c><c>   2</c></rc>
    <rc><c>S </c><c>   2</c></rc>
    <rc><c>S </c><c>   2</c></rc>
   </set>
  </array>
  <array name="atomtypes" >
   <dimension dim="1">type</dimension>
   <field type="int">atomspertype</field>
   <field type="string">element</field>
   <field>mass</field>
   <field>valence</field>
   <field type="string">pseudopotential</field>
   <set>
    <rc><c>  36</c><c>Cd</c><c>    112.41100000</c><c>     12.00000000</c><c>  PAW_PBE Cd 06Sep2000                  </c></rc>
    <rc><c>  36</c><c>S </c><c>     32.06600000</c><c>      6.00000000</c><c>  PAW_PBE S 06Sep2000                   </c></rc>
   </set>
  </array>
 </atominfo>
 <structure name="initialpos" >
  <crystal>
   <varray name="basis" >
    <v>       6.25325715     -10.83095910       0.00000000 </v>
    <v>       6.25325715      10.83095910       0.00000000 </v>
    <v>       0.00000000       0.00000000      13.55923482 </v>
   </varray>
   <i name="volume">   1836.70065798 </i>
   <varray name="rec_basis" >
    <v>       0.07995833      -0.04616396       0.00000000 </v>
    <v>       0.07995833       0.04616396       0.00000000 </v>
    <v>       0.00000000       0.00000000       0.07375047 </v>
   </varray>
  </crystal>
  <varray name="positions" >
   <v>       0.22222222       0.11111111       0.25011218 </v>
   <v>       0.22222222       0.77777778       0.75011218 </v>
   <v>       0.11111111       0.88888889       0.50011218 </v>
   <v>       0.55555556       0.77777778       0.25011218 </v>
   <v>       0.44444444       0.88888889       0.50011218 </v>
   <v>       0.55555556       0.11111111       0.25011218 </v>
   <v>       0.44444444       0.22222222       0.00011218 </v>
   <v>       0.88888889       0.44444444       0.75011218 </v>
   <v>       0.77777778       0.55555556       0.00011218 </v>
   <v>       0.55555556       0.11111111       0.75011218 </v>
   <v>       0.44444444       0.22222222       0.50011218 </v>
   <v>       0.55555556       0.44444444       0.25011218 </v>
   <v>       0.44444444       0.55555556       0.00011218 </v>
   <v>       0.77777778       0.22222222       0.50011218 </v>
   <v>       0.88888889       0.11111111       0.75011218 </v>
   <v>       0.88888889       0.44444444       0.25011218 </v>
   <v>       0.55555556       0.44444444       0.75011218 </v>
   <v>       0.77777778       0.55555556       0.50011218 </v>
   <v>       0.22222222       0.77777778       0.25011218 </v>
   <v>       0.11111111       0.22222222       0.00011218 </v>
   <v>       0.77777778       0.88888889       0.50011218 </v>
   <v>       0.88888889       0.77777778       0.75011218 </v>
   <v>       0.22222222       0.11111111       0.75011218 </v>
   <v>       0.11111111       0.22222222       0.50011218 </v>
   <v>       0.55555556       0.77777778       0.75011218 </v>
   <v>       0.11111111       0.88888889       0.00011218 </v>
   <v>       0.88888889       0.11111111       0.25011218 </v>
   <v>       0.11111111       0.55555556       0.00011218 </v>
   <v>       0.77777778       0.88888889       0.00011218 </v>
   <v>       0.88888889       0.77777778       0.25011218 </v>
   <v>       0.22222222       0.44444444       0.75011218 </v>
   <v>       0.11111111       0.55555556       0.50011218 </v>
   <v>       0.77777778       0.22222222       0.00011218 </v>
   <v>       0.44444444       0.88888889       0.00011218 </v>
   <v>       0.22222222       0.44444444       0.25011218 </v>
   <v>       0.44444444       0.55555556       0.50011218 </v>
   <v>       0.88888889       0.11111111       0.43838781 </v>
   <v>       0.77777778       0.22222222       0.18838781 </v>
   <v>       0.88888889       0.44444444       0.43838781 </v>
   <v>       0.77777778       0.22222222       0.68838781 </v>
   <v>       0.77777778       0.55555556       0.18838781 </v>
   <v>       0.88888889       0.44444444       0.93838781 </v>
   <v>       0.77777778       0.55555556       0.68838781 </v>
   <v>       0.88888889       0.77777778       0.43838781 </v>
   <v>       0.77777778       0.88888889       0.18838781 </v>
   <v>       0.88888889       0.11111111       0.93838781 </v>
   <v>       0.44444444       0.88888889       0.68838781 </v>
   <v>       0.44444444       0.55555556       0.18838781 </v>
   <v>       0.44444444       0.88888889       0.18838781 </v>
   <v>       0.22222222       0.11111111       0.43838781 </v>
   <v>       0.11111111       0.22222222       0.18838781 </v>
   <v>       0.22222222       0.11111111       0.93838781 </v>
   <v>       0.11111111       0.22222222       0.68838781 </v>
   <v>       0.22222222       0.44444444       0.43838781 </v>
   <v>       0.11111111       0.55555556       0.18838781 </v>
   <v>       0.22222222       0.44444444       0.93838781 </v>
   <v>       0.11111111       0.55555556       0.68838781 </v>
   <v>       0.22222222       0.77777778       0.43838781 </v>
   <v>       0.11111111       0.88888889       0.18838781 </v>
   <v>       0.22222222       0.77777778       0.93838781 </v>
   <v>       0.11111111       0.88888889       0.68838781 </v>
   <v>       0.55555556       0.11111111       0.43838781 </v>
   <v>       0.44444444       0.22222222       0.18838781 </v>
   <v>       0.55555556       0.11111111       0.93838781 </v>
   <v>       0.44444444       0.22222222       0.68838781 </v>
   <v>       0.55555556       0.44444444       0.43838781 </v>
   <v>       0.88888889       0.77777778       0.93838781 </v>
   <v>       0.55555556       0.44444444       0.93838781 </v>
   <v>       0.44444444       0.55555556       0.68838781 </v>
   <v>       0.55555556       0.77777778       0.43838781 </v>
   <v>       0.55555556       0.77777778       0.93838781 </v>
   <v>       0.77777778       0.88888889       0.68838781 </v>
  </varray>
 </structure>
 <calculation>
  <scstep>
   <time name="dav">    6.91    8.89</time>
   <time name="total">    7.54    9.89</time>
   <energy>
    <i name="alphaZ">   2675.77335074 </i>
    <i name="ewald"> -41363.78645763 </i>
    <i name="hartreedc"> -16920.60810503 </i>
    <i name="XCdc">    632.08754442 </i>
    <i name="pawpsdc">  50910.12673542 </i>
    <i name="pawaedc"> -49579.16223443 </i>
    <i name="eentropy">     -0.04553031 </i>
    <i name="bandstr">   1235.97231294 </i>
    <i name="atom">  56519.19489806 </i>
    <i name="e_fr_energy">   4109.55251419 </i>
    <i name="e_wo_entrp">   4109.59804450 </i>
    <i name="e_0_energy">   4109.57527935 </i>
   </energy>
  </scstep>
  <scstep>
   <time name="dav">    7.63    8.57</time>
   <time name="total">    7.63    8.57</time>
   <energy>
    <i name="e_fr_energy">     47.21707252 </i>
    <i name="e_wo_entrp">     47.21707252 </i>
    <i name="e_0_energy">     47.21707252 </i>
   </energy>
  </scstep>
  <scstep>
   <time name="dav">    7.58    8.47</time>
   <time name="total">    7.58    8.47</time>
   <energy>
    <i name="e_fr_energy">   -234.12772419 </i>
    <i name="e_wo_entrp">   -234.12772419 </i>
    <i name="e_0_energy">   -234.12772419 </i>
   </energy>
  </scstep>
  <scstep>
   <time name="dav">    7.53    7.58</time>
   <time name="total">    7.53    7.58</time>
   <energy>
    <i name="e_fr_energy">   -238.95241538 </i>
    <i name="e_wo_entrp">   -238.95241538 </i>
    <i name="e_0_energy">   -238.95241538 </i>
   </energy>
  </scstep>
  <scstep>
   <time name="dav">    7.27    7.31</time>
   <time name="total">    7.61    7.70</time>
   <energy>
    <i name="e_fr_energy">   -239.05748844 </i>
    <i name="e_wo_entrp">   -239.05748844 </i>
    <i name="e_0_energy">   -239.05748844 </i>
   </energy>
  </scstep>
  <scstep>
   <time name="dav">    8.16    8.30</time>
   <time name="total">    8.63    8.78</time>
   <energy>
    <i name="e_fr_energy">   -218.65472553 </i>
    <i name="e_wo_entrp">   -218.65472553 </i>
    <i name="e_0_energy">   -218.65472553 </i>
   </energy>
  </scstep>
  <scstep>
   <time name="dav">    6.88    6.94</time>
   <time name="total">    7.33    7.39</time>
   <energy>
    <i name="e_fr_energy">   -218.54333601 </i>
    <i name="e_wo_entrp">   -218.54333601 </i>
    <i name="e_0_energy">   -218.54333601 </i>
   </energy>
  </scstep>
  <scstep>
   <time name="dav">    7.13    7.18</time>
   <time name="total">    7.60    7.65</time>
   <energy>
    <i name="e_fr_energy">   -218.26695200 </i>
    <i name="e_wo_entrp">   -218.26695200 </i>
    <i name="e_0_energy">   -218.26695200 </i>
   </energy>
  </scstep>
  <scstep>
   <time name="dav">    6.66    6.70</time>
   <time name="total">    7.13    7.18</time>
   <energy>
    <i name="e_fr_energy">   -218.26146924 </i>
    <i name="e_wo_entrp">   -218.26146924 </i>
    <i name="e_0_energy">   -218.26146924 </i>
   </energy>
  </scstep>
  <scstep>
   <time name="dav">    6.67    6.71</time>
   <time name="total">    7.14    7.18</time>
   <energy>
    <i name="e_fr_energy">   -218.26005239 </i>
    <i name="e_wo_entrp">   -218.26005239 </i>
    <i name="e_0_energy">   -218.26005239 </i>
   </energy>
  </scstep>
  <scstep>
   <time name="dav">    7.76    7.97</time>
   <time name="total">    8.23    8.45</time>
   <energy>
    <i name="e_fr_energy">   -218.26279309 </i>
    <i name="e_wo_entrp">   -218.26279309 </i>
    <i name="e_0_energy">   -218.26279309 </i>
   </energy>
  </scstep>
  <scstep>
   <time name="dav">    7.06    7.10</time>
   <time name="total">    7.53    7.58</time>
   <energy>
    <i name="e_fr_energy">   -218.26456187 </i>
    <i name="e_wo_entrp">   -218.26456187 </i>
    <i name="e_0_energy">   -218.26456187 </i>
   </energy>
  </scstep>
  <scstep>
   <time name="dav">    6.89    6.93</time>
   <time name="total">    7.33    7.38</time>
   <energy>
    <i name="e_fr_energy">   -218.26479517 </i>
    <i name="e_wo_entrp">   -218.26479517 </i>
    <i name="e_0_energy">   -218.26479517 </i>
   </energy>
  </scstep>
  <scstep>
   <time name="dav">    6.46    6.50</time>
   <time name="total">    6.93    6.97</time>
   <energy>
    <i name="e_fr_energy">   -218.26480961 </i>
    <i name="e_wo_entrp">   -218.26480961 </i>
    <i name="e_0_energy">   -218.26480961 </i>
   </energy>
  </scstep>
  <scstep>
   <time name="dav">    6.48    6.51</time>
   <time name="total">    6.93    6.97</time>
   <energy>
    <i name="e_fr_energy">   -218.26481426 </i>
    <i name="e_wo_entrp">   -218.26481426 </i>
    <i name="e_0_energy">   -218.26481426 </i>
   </energy>
  </scstep>
  <scstep>
   <time name="dav">    6.08    6.21</time>
   <time name="total">    6.53    6.66</time>
   <energy>
    <i name="e_fr_energy">   -218.26481324 </i>
    <i name="e_wo_entrp">   -218.26481324 </i>
    <i name="e_0_energy">   -218.26481324 </i>
   </energy>
  </scstep>
  <scstep>
   <time name="dav">    4.74    4.76</time>
   <time name="total">    4.86    4.89</time>
   <energy>
    <i name="alphaZ">   2675.77335074 </i>
    <i name="ewald"> -41363.78645763 </i>
    <i name="hartreedc"> -16875.04442263 </i>
    <i name="XCdc">    645.08487425 </i>
    <i name="pawpsdc">  66845.74022336 </i>
    <i name="pawaedc"> -65486.65980990 </i>
    <i name="eentropy">     -0.00000000 </i>
    <i name="bandstr">  -3178.56746900 </i>
    <i name="atom">  56519.19489806 </i>
    <i name="e_fr_energy">   -218.26481275 </i>
    <i name="e_wo_entrp">   -218.26481275 </i>
    <i name="e_0_energy">   -218.26481275 </i>
   </energy>
  </scstep>
  <structure>
   <crystal>
    <varray name="basis" >
     <v>       6.25325715     -10.83095910       0.00000000 </v>
     <v>       6.25325715      10.83095910       0.00000000 </v>
     <v>       0.00000000       0.00000000      13.55923482 </v>
    </varray>
    <i name="volume">   1836.70065798 </i>
    <varray name="rec_basis" >
     <v>       0.07995833      -0.04616396       0.00000000 </v>
     <v>       0.07995833       0.04616396       0.00000000 </v>
     <v>       0.00000000       0.00000000       0.07375047 </v>
    </varray>
   </crystal>
   <varray name="positions" >
    <v>       0.22222222       0.11111111       0.25011218 </v>
    <v>       0.22222222       0.77777778       0.75011218 </v>
    <v>       0.11111111       0.88888889       0.50011218 </v>
    <v>       0.55555556       0.77777778       0.25011218 </v>
    <v>       0.44444444       0.88888889       0.50011218 </v>
    <v>       0.55555556       0.11111111       0.25011218 </v>
    <v>       0.44444444       0.22222222       0.00011218 </v>
    <v>       0.88888889       0.44444444       0.75011218 </v>
    <v>       0.77777778       0.55555556       0.00011218 </v>
    <v>       0.55555556       0.11111111       0.75011218 </v>
    <v>       0.44444444       0.22222222       0.50011218 </v>
    <v>       0.55555556       0.44444444       0.25011218 </v>
    <v>       0.44444444       0.55555556       0.00011218 </v>
    <v>       0.77777778       0.22222222       0.50011218 </v>
    <v>       0.88888889       0.11111111       0.75011218 </v>
    <v>       0.88888889       0.44444444       0.25011218 </v>
    <v>       0.55555556       0.44444444       0.75011218 </v>
    <v>       0.77777778       0.55555556       0.50011218 </v>
    <v>       0.22222222       0.77777778       0.25011218 </v>
    <v>       0.11111111       0.22222222       0.00011218 </v>
    <v>       0.77777778       0.88888889       0.50011218 </v>
    <v>       0.88888889       0.77777778       0.75011218 </v>
    <v>       0.22222222       0.11111111       0.75011218 </v>
    <v>       0.11111111       0.22222222       0.50011218 </v>
    <v>       0.55555556       0.77777778       0.75011218 </v>
    <v>       0.11111111       0.88888889       0.00011218 </v>
    <v>       0.88888889       0.11111111       0.25011218 </v>
    <v>       0.11111111       0.55555556       0.00011218 </v>
    <v>       0.77777778       0.88888889       0.00011218 </v>
    <v>       0.88888889       0.77777778       0.25011218 </v>
    <v>       0.22222222       0.44444444       0.75011218 </v>
    <v>       0.11111111       0.55555556       0.50011218 </v>
    <v>       0.77777778       0.22222222       0.00011218 </v>
    <v>       0.44444444       0.88888889       0.00011218 </v>
    <v>       0.22222222       0.44444444       0.25011218 </v>
    <v>       0.44444444       0.55555556       0.50011218 </v>
    <v>       0.88888889       0.11111111       0.43838781 </v>
    <v>       0.77777778       0.22222222       0.18838781 </v>
    <v>       0.88888889       0.44444444       0.43838781 </v>
    <v>       0.77777778       0.22222222       0.68838781 </v>
    <v>       0.77777778       0.55555556       0.18838781 </v>
    <v>       0.88888889       0.44444444       0.93838781 </v>
    <v>       0.77777778       0.55555556       0.68838781 </v>
    <v>       0.88888889       0.77777778       0.43838781 </v>
    <v>       0.77777778       0.88888889       0.18838781 </v>
    <v>       0.88888889       0.11111111       0.93838781 </v>
    <v>       0.44444444       0.88888889       0.68838781 </v>
    <v>       0.44444444       0.55555556       0.18838781 </v>
    <v>       0.44444444       0.88888889       0.18838781 </v>
    <v>       0.22222222       0.11111111       0.43838781 </v>
    <v>       0.11111111       0.22222222       0.18838781 </v>
    <v>       0.22222222       0.11111111       0.93838781 </v>
    <v>       0.11111111       0.22222222       0.68838781 </v>
    <v>       0.22222222       0.44444444       0.43838781 </v>
    <v>       0.11111111       0.55555556       0.18838781 </v>
    <v>       0.22222222       0.44444444       0.93838781 </v>
    <v>       0.11111111       0.55555556       0.68838781 </v>
    <v>       0.22222222       0.77777778       0.43838781 </v>
    <v>       0.11111111       0.88888889       0.18838781 </v>
    <v>       0.22222222       0.77777778       0.93838781 </v>
    <v>       0.11111111       0.88888889       0.68838781 </v>
    <v>       0.55555556       0.11111111       0.43838781 </v>
    <v>       0.44444444       0.22222222       0.18838781 </v>
    <v>       0.55555556       0.11111111       0.93838781 </v>
    <v>       0.44444444       0.22222222       0.68838781 </v>
    <v>       0.55555556       0.44444444       0.43838781 </v>
    <v>       0.88888889       0.77777778       0.93838781 </v>
    <v>       0.55555556       0.44444444       0.93838781 </v>
    <v>       0.44444444       0.55555556       0.68838781 </v>
    <v>       0.55555556       0.77777778       0.43838781 </v>
    <v>       0.55555556       0.77777778       0.93838781 </v>
    <v>       0.77777778       0.88888889       0.68838781 </v>
   </varray>
  </structure>
  <varray name="forces" >
   <v>      -0.00000000      -0.00000000       0.04580569 </v>
   <v>       0.00000000       0.00000000       0.04580569 </v>
   <v>      -0.00000000       0.00000000       0.04580569 </v>
   <v>       0.00000000       0.00000000       0.04580569 </v>
   <v>       0.00000000       0.00000000       0.04580569 </v>
   <v>       0.00000000      -0.00000000       0.04580569 </v>
   <v>      -0.00000000      -0.00000000       0.04580569 </v>
   <v>       0.00000000       0.00000000       0.04580569 </v>
   <v>       0.00000000      -0.00000000       0.04580569 </v>
   <v>      -0.00000000      -0.00000000       0.04580569 </v>
   <v>       0.00000000      -0.00000000       0.04580569 </v>
   <v>       0.00000000      -0.00000000       0.04580569 </v>
   <v>      -0.00000000      -0.00000000       0.04580569 </v>
   <v>      -0.00000000      -0.00000000       0.04580569 </v>
   <v>      -0.00000000       0.00000000       0.04580569 </v>
   <v>       0.00000000       0.00000000       0.04580569 </v>
   <v>       0.00000000       0.00000000       0.04580569 </v>
   <v>      -0.00000000       0.00000000       0.04580569 </v>
   <v>      -0.00000000      -0.00000000       0.04580569 </v>
   <v>      -0.00000000      -0.00000000       0.04580569 </v>
   <v>      -0.00000000       0.00000000       0.04580569 </v>
   <v>       0.00000000       0.00000000       0.04580569 </v>
   <v>       0.00000000       0.00000000       0.04580569 </v>
   <v>      -0.00000000      -0.00000000       0.04580569 </v>
   <v>       0.00000000       0.00000000       0.04580569 </v>
   <v>      -0.00000000      -0.00000000       0.04580569 </v>
   <v>      -0.00000000      -0.00000000       0.04580569 </v>
   <v>      -0.00000000       0.00000000       0.04580569 </v>
   <v>      -0.00000000       0.00000000       0.04580569 </v>
   <v>      -0.00000000      -0.00000000       0.04580569 </v>
   <v>       0.00000000       0.00000000       0.04580569 </v>
   <v>      -0.00000000       0.00000000       0.04580569 </v>
   <v>      -0.00000000       0.00000000       0.04580569 </v>
   <v>       0.00000000       0.00000000       0.04580569 </v>
   <v>       0.00000000       0.00000000       0.04580569 </v>
   <v>      -0.00000000       0.00000000       0.04580569 </v>
   <v>      -0.00000000      -0.00000000      -0.04580569 </v>
   <v>      -0.00000000      -0.00000000      -0.04580569 </v>
   <v>       0.00000000       0.00000000      -0.04580569 </v>
   <v>       0.00000000      -0.00000000      -0.04580569 </v>
   <v>      -0.00000000      -0.00000000      -0.04580569 </v>
   <v>       0.00000000       0.00000000      -0.04580569 </v>
   <v>       0.00000000      -0.00000000      -0.04580569 </v>
   <v>      -0.00000000       0.00000000      -0.04580569 </v>
   <v>      -0.00000000      -0.00000000      -0.04580569 </v>
   <v>       0.00000000       0.00000000      -0.04580569 </v>
   <v>       0.00000000      -0.00000000      -0.04580569 </v>
   <v>      -0.00000000      -0.00000000      -0.04580569 </v>
   <v>      -0.00000000      -0.00000000      -0.04580569 </v>
   <v>       0.00000000       0.00000000      -0.04580569 </v>
   <v>      -0.00000000      -0.00000000      -0.04580569 </v>
   <v>       0.00000000       0.00000000      -0.04580569 </v>
   <v>       0.00000000      -0.00000000      -0.04580569 </v>
   <v>       0.00000000       0.00000000      -0.04580569 </v>
   <v>      -0.00000000      -0.00000000      -0.04580569 </v>
   <v>       0.00000000       0.00000000      -0.04580569 </v>
   <v>       0.00000000      -0.00000000      -0.04580569 </v>
   <v>      -0.00000000       0.00000000      -0.04580569 </v>
   <v>      -0.00000000      -0.00000000      -0.04580569 </v>
   <v>       0.00000000       0.00000000      -0.04580569 </v>
   <v>       0.00000000      -0.00000000      -0.04580569 </v>
   <v>       0.00000000       0.00000000      -0.04580569 </v>
   <v>      -0.00000000      -0.00000000      -0.04580569 </v>
   <v>       0.00000000       0.00000000      -0.04580569 </v>
   <v>       0.00000000      -0.00000000      -0.04580569 </v>
   <v>       0.00000000       0.00000000      -0.04580569 </v>
   <v>       0.00000000       0.00000000      -0.04580569 </v>
   <v>       0.00000000       0.00000000      -0.04580569 </v>
   <v>       0.00000000      -0.00000000      -0.04580569 </v>
   <v>      -0.00000000       0.00000000      -0.04580569 </v>
   <v>       0.00000000       0.00000000      -0.04580569 </v>
   <v>       0.00000000      -0.00000000      -0.04580569 </v>
  </varray>
  <varray name="stress" >
   <v>      16.37434456       0.00000000      -0.00000000 </v>
   <v>       0.00000000      16.37434456       0.00000000 </v>
   <v>       0.00000000       0.00000000       8.44575083 </v>
  </varray>
  <energy>
   <i name="e_fr_energy">   -218.26481275 </i>
   <i name="e_wo_entrp">   -218.26481275 </i>
   <i name="e_0_energy">   -218.26481275 </i>
  </energy>
  <time name="totalsc">  131.87  137.13</time>
  <eigenvalues>
   <array>
    <dimension dim="1">band</dimension>
    <dimension dim="2">kpoint</dimension>
    <dimension dim="3">spin</dimension>
    <field>eigene</field>
    <field>occ</field>
    <set>
     <set comment="spin 1">
      <set comment="kpoint 1">
       <r>  -11.0821    1.0000 </r>
       <r>  -10.8741    1.0000 </r>
       <r>  -10.8741    1.0000 </r>
       <r>  -10.7984    1.0000 </r>
       <r>  -10.7984    1.0000 </r>
       <r>  -10.7984    1.0000 </r>
       <r>  -10.7984    1.0000 </r>
       <r>  -10.7984    1.0000 </r>
       <r>  -10.7984    1.0000 </r>
       <r>  -10.6760    1.0000 </r>
       <r>  -10.6760    1.0000 </r>
       <r>  -10.6760    1.0000 </r>
       <r>  -10.6760    1.0000 </r>
       <r>  -10.6760    1.0000 </r>
       <r>  -10.6760    1.0000 </r>
       <r>  -10.6760    1.0000 </r>
       <r>  -10.6760    1.0000 </r>
       <r>  -10.6760    1.0000 </r>
       <r>  -10.6760    1.0000 </r>
       <r>  -10.6760    1.0000 </r>
       <r>  -10.6760    1.0000 </r>
       <r>  -10.6739    1.0000 </r>
       <r>  -10.5901    1.0000 </r>
       <r>  -10.5901    1.0000 </r>
       <r>  -10.5901    1.0000 </r>
       <r>  -10.5901    1.0000 </r>
       <r>  -10.5797    1.0000 </r>
       <r>  -10.5797    1.0000 </r>
       <r>  -10.5797    1.0000 </r>
       <r>  -10.5797    1.0000 </r>
       <r>  -10.5712    1.0000 </r>
       <r>  -10.5712    1.0000 </r>
       <r>  -10.5712    1.0000 </r>
       <r>  -10.5712    1.0000 </r>
       <r>  -10.5712    1.0000 </r>
       <r>  -10.5712    1.0000 </r>
       <r>   -6.5317    1.0000 </r>
       <r>   -6.5221    1.0000 </r>
       <r>   -6.5221    1.0000 </r>
       <r>   -6.4894    1.0000 </r>
       <r>   -6.4894    1.0000 </r>
       <r>   -6.4894    1.0000 </r>
       <r>   -6.4894    1.0000 </r>
       <r>   -6.4630    1.0000 </r>
       <r>   -6.4630    1.0000 </r>
       <r>   -6.4514    1.0000 </r>
       <r>   -6.4514    1.0000 </r>
       <r>   -6.4514    1.0000 </r>
       <r>   -6.4514    1.0000 </r>
       <r>   -6.4514    1.0000 </r>
       <r>   -6.4514    1.0000 </r>
       <r>   -6.4439    1.0000 </r>
       <r>   -6.4439    1.0000 </r>
       <r>   -6.4346    1.0000 </r>
       <r>   -6.4346    1.0000 </r>
       <r>   -6.4346    1.0000 </r>
       <r>   -6.4346    1.0000 </r>
       <r>   -6.4346    1.0000 </r>
       <r>   -6.4346    1.0000 </r>
       <r>   -6.4086    1.0000 </r>
       <r>   -6.4086    1.0000 </r>
       <r>   -6.4086    1.0000 </r>
       <r>   -6.4086    1.0000 </r>
       <r>   -6.4086    1.0000 </r>
       <r>   -6.4086    1.0000 </r>
       <r>   -6.4086    1.0000 </r>
       <r>   -6.4086    1.0000 </r>
       <r>   -6.4086    1.0000 </r>
       <r>   -6.4086    1.0000 </r>
       <r>   -6.4086    1.0000 </r>
       <r>   -6.4086    1.0000 </r>
       <r>   -6.3625    1.0000 </r>
       <r>   -6.3625    1.0000 </r>
       <r>   -6.3625    1.0000 </r>
       <r>   -6.3625    1.0000 </r>
       <r>   -6.3625    1.0000 </r>
       <r>   -6.3625    1.0000 </r>
       <r>   -6.3625    1.0000 </r>
       <r>   -6.3625    1.0000 </r>
       <r>   -6.3625    1.0000 </r>
       <r>   -6.3625    1.0000 </r>
       <r>   -6.3625    1.0000 </r>
       <r>   -6.3625    1.0000 </r>
       <r>   -6.3535    1.0000 </r>
       <r>   -6.3535    1.0000 </r>
       <r>   -6.3535    1.0000 </r>
       <r>   -6.3535    1.0000 </r>
       <r>   -6.3369    1.0000 </r>
       <r>   -6.3369    1.0000 </r>
       <r>   -6.3369    1.0000 </r>
       <r>   -6.3369    1.0000 </r>
       <r>   -6.3173    1.0000 </r>
       <r>   -6.3173    1.0000 </r>
       <r>   -6.3173    1.0000 </r>
       <r>   -6.3173    1.0000 </r>
       <r>   -6.3173    1.0000 </r>
       <r>   -6.3173    1.0000 </r>
       <r>   -6.3113    1.0000 </r>
       <r>   -6.3113    1.0000 </r>
       <r>   -6.3013    1.0000 </r>
       <r>   -6.3013    1.0000 </r>
       <r>   -6.3013    1.0000 </r>
       <r>   -6.3013    1.0000 </r>
       <r>   -6.2931    1.0000 </r>
       <r>   -6.2931    1.0000 </r>
       <r>   -6.2931    1.0000 </r>
       <r>   -6.2931    1.0000 </r>
       <r>   -6.2931    1.0000 </r>
       <r>   -6.2931    1.0000 </r>
       <r>   -6.2402    1.0000 </r>
       <r>   -6.2402    1.0000 </r>
       <r>   -6.2275    1.0000 </r>
       <r>   -6.2275    1.0000 </r>
       <r>   -6.2275    1.0000 </r>
       <r>   -6.2275    1.0000 </r>
       <r>   -6.2275    1.0000 </r>
       <r>   -6.2275    1.0000 </r>
       <r>   -6.2030    1.0000 </r>
       <r>   -6.2030    1.0000 </r>
       <r>   -6.2030    1.0000 </r>
       <r>   -6.2030    1.0000 </r>
       <r>   -6.2030    1.0000 </r>
       <r>   -6.2030    1.0000 </r>
       <r>   -6.2030    1.0000 </r>
       <r>   -6.2030    1.0000 </r>
       <r>   -6.2030    1.0000 </r>
       <r>   -6.2030    1.0000 </r>
       <r>   -6.2030    1.0000 </r>
       <r>   -6.2030    1.0000 </r>
       <r>   -6.1842    1.0000 </r>
       <r>   -6.1842    1.0000 </r>
       <r>   -6.1842    1.0000 </r>
       <r>   -6.1842    1.0000 </r>
       <r>   -6.1842    1.0000 </r>
       <r>   -6.1842    1.0000 </r>
       <r>   -6.1514    1.0000 </r>
       <r>   -6.1514    1.0000 </r>
       <r>   -6.1514    1.0000 </r>
       <r>   -6.1514    1.0000 </r>
       <r>   -6.1413    1.0000 </r>
       <r>   -6.1413    1.0000 </r>
       <r>   -6.1333    1.0000 </r>
       <r>   -6.1333    1.0000 </r>
       <r>   -6.1333    1.0000 </r>
       <r>   -6.1333    1.0000 </r>
       <r>   -6.1251    1.0000 </r>
       <r>   -6.1251    1.0000 </r>
       <r>   -6.1242    1.0000 </r>
       <r>   -6.1242    1.0000 </r>
       <r>   -6.1242    1.0000 </r>
       <r>   -6.1242    1.0000 </r>
       <r>   -6.1071    1.0000 </r>
       <r>   -6.1071    1.0000 </r>
       <r>   -6.1071    1.0000 </r>
       <r>   -6.1071    1.0000 </r>
       <r>   -6.1071    1.0000 </r>
       <r>   -6.1071    1.0000 </r>
       <r>   -6.0938    1.0000 </r>
       <r>   -6.0938    1.0000 </r>
       <r>   -6.0938    1.0000 </r>
       <r>   -6.0938    1.0000 </r>
       <r>   -6.0772    1.0000 </r>
       <r>   -6.0772    1.0000 </r>
       <r>   -6.0772    1.0000 </r>
       <r>   -6.0772    1.0000 </r>
       <r>   -6.0772    1.0000 </r>
       <r>   -6.0772    1.0000 </r>
       <r>   -6.0754    1.0000 </r>
       <r>   -6.0754    1.0000 </r>
       <r>   -6.0754    1.0000 </r>
       <r>   -6.0754    1.0000 </r>
       <r>   -6.0754    1.0000 </r>
       <r>   -6.0754    1.0000 </r>
       <r>   -6.0754    1.0000 </r>
       <r>   -6.0754    1.0000 </r>
       <r>   -6.0754    1.0000 </r>
       <r>   -6.0754    1.0000 </r>
       <r>   -6.0754    1.0000 </r>
       <r>   -6.0754    1.0000 </r>
       <r>   -6.0707    1.0000 </r>
       <r>   -6.0707    1.0000 </r>
       <r>   -6.0560    1.0000 </r>
       <r>   -6.0560    1.0000 </r>
       <r>   -6.0329    1.0000 </r>
       <r>   -6.0329    1.0000 </r>
       <r>   -6.0329    1.0000 </r>
       <r>   -6.0329    1.0000 </r>
       <r>   -6.0329    1.0000 </r>
       <r>   -6.0329    1.0000 </r>
       <r>   -5.9038    1.0000 </r>
       <r>   -5.9038    1.0000 </r>
       <r>   -5.9038    1.0000 </r>
       <r>   -5.9038    1.0000 </r>
       <r>   -5.9038    1.0000 </r>
       <r>   -5.9038    1.0000 </r>
       <r>   -5.9038    1.0000 </r>
       <r>   -5.9038    1.0000 </r>
       <r>   -5.9038    1.0000 </r>
       <r>   -5.9038    1.0000 </r>
       <r>   -5.9038    1.0000 </r>
       <r>   -5.9038    1.0000 </r>
       <r>   -5.7291    1.0000 </r>
       <r>   -5.5963    1.0000 </r>
       <r>   -5.5963    1.0000 </r>
       <r>   -5.5963    1.0000 </r>
       <r>   -5.5963    1.0000 </r>
       <r>   -5.5816    1.0000 </r>
       <r>   -5.5816    1.0000 </r>
       <r>   -5.5816    1.0000 </r>
       <r>   -5.5816    1.0000 </r>
       <r>   -5.5641    1.0000 </r>
       <r>   -5.5641    1.0000 </r>
       <r>   -5.5641    1.0000 </r>
       <r>   -5.5641    1.0000 </r>
       <r>   -5.5641    1.0000 </r>
       <r>   -5.5641    1.0000 </r>
       <r>   -3.1174    1.0000 </r>
       <r>   -2.7952    1.0000 </r>
       <r>   -2.7952    1.0000 </r>
       <r>   -2.7952    1.0000 </r>
       <r>   -2.7952    1.0000 </r>
       <r>   -2.7155    1.0000 </r>
       <r>   -2.7155    1.0000 </r>
       <r>   -2.7155    1.0000 </r>
       <r>   -2.7155    1.0000 </r>
       <r>   -2.7155    1.0000 </r>
       <r>   -2.7155    1.0000 </r>
       <r>   -2.4775    1.0000 </r>
       <r>   -2.4775    1.0000 </r>
       <r>   -2.4775    1.0000 </r>
       <r>   -2.4775    1.0000 </r>
       <r>   -2.3110    1.0000 </r>
       <r>   -2.3110    1.0000 </r>
       <r>   -2.3110    1.0000 </r>
       <r>   -2.3110    1.0000 </r>
       <r>   -2.3110    1.0000 </r>
       <r>   -2.3110    1.0000 </r>
       <r>   -2.3110    1.0000 </r>
       <r>   -2.3110    1.0000 </r>
       <r>   -2.3110    1.0000 </r>
       <r>   -2.3110    1.0000 </r>
       <r>   -2.3110    1.0000 </r>
       <r>   -2.3110    1.0000 </r>
       <r>   -1.8535    1.0000 </r>
       <r>   -1.8535    1.0000 </r>
       <r>   -1.7593    1.0000 </r>
       <r>   -1.7593    1.0000 </r>
       <r>   -1.7593    1.0000 </r>
       <r>   -1.7593    1.0000 </r>
       <r>   -1.7593    1.0000 </r>
       <r>   -1.7593    1.0000 </r>
       <r>   -1.3520    1.0000 </r>
       <r>   -1.3520    1.0000 </r>
       <r>   -1.3520    1.0000 </r>
       <r>   -1.3520    1.0000 </r>
       <r>   -1.3520    1.0000 </r>
       <r>   -1.3520    1.0000 </r>
       <r>   -1.3040    1.0000 </r>
       <r>   -1.3040    1.0000 </r>
       <r>   -1.2159    1.0000 </r>
       <r>   -1.2159    1.0000 </r>
       <r>   -1.2159    1.0000 </r>
       <r>   -1.2159    1.0000 </r>
       <r>   -0.6594    1.0000 </r>
       <r>   -0.6594    1.0000 </r>
       <r>   -0.6594    1.0000 </r>
       <r>   -0.6594    1.0000 </r>
       <r>   -0.4602    1.0000 </r>
       <r>   -0.4602    1.0000 </r>
       <r>   -0.4378    1.0000 </r>
       <r>   -0.4378    1.0000 </r>
       <r>   -0.4378    1.0000 </r>
       <r>   -0.4378    1.0000 </r>
       <r>   -0.4378    1.0000 </r>
       <r>   -0.4378    1.0000 </r>
       <r>   -0.2087    1.0000 </r>
       <r>   -0.2087    1.0000 </r>
       <r>   -0.2087    1.0000 </r>
       <r>   -0.2087    1.0000 </r>
       <r>   -0.2087    1.0000 </r>
       <r>   -0.2087    1.0000 </r>
       <r>   -0.2087    1.0000 </r>
       <r>   -0.2087    1.0000 </r>
       <r>   -0.2087    1.0000 </r>
       <r>   -0.2087    1.0000 </r>
       <r>   -0.2087    1.0000 </r>
       <r>   -0.2087    1.0000 </r>
       <r>    0.0410    1.0000 </r>
       <r>    0.0410    1.0000 </r>
       <r>    0.0410    1.0000 </r>
       <r>    0.0410    1.0000 </r>
       <r>    0.0410    1.0000 </r>
       <r>    0.0410    1.0000 </r>
       <r>    0.0410    1.0000 </r>
       <r>    0.0410    1.0000 </r>
       <r>    0.0410    1.0000 </r>
       <r>    0.0410    1.0000 </r>
       <r>    0.0410    1.0000 </r>
       <r>    0.0410    1.0000 </r>
       <r>    0.0469    1.0000 </r>
       <r>    0.0469    1.0000 </r>
       <r>    0.0469    1.0000 </r>
       <r>    0.0469    1.0000 </r>
       <r>    0.3318    1.0000 </r>
       <r>    0.3318    1.0000 </r>
       <r>    0.3318    1.0000 </r>
       <r>    0.3318    1.0000 </r>
       <r>    0.3318    1.0000 </r>
       <r>    0.3318    1.0000 </r>
       <r>    0.3961    1.0000 </r>
       <r>    0.3961    1.0000 </r>
       <r>    0.5763    1.0000 </r>
       <r>    0.5763    1.0000 </r>
       <r>    0.5763    1.0000 </r>
       <r>    0.5763    1.0000 </r>
       <r>    0.5763    1.0000 </r>
       <r>    0.5763    1.0000 </r>
       <r>    0.7466    1.0000 </r>
       <r>    0.7466    1.0000 </r>
       <r>    0.7466    1.0000 </r>
       <r>    0.7466    1.0000 </r>
       <r>    1.0764    1.0000 </r>
       <r>    1.1224    1.0000 </r>
       <r>    1.1224    1.0000 </r>
       <r>    2.2608    0.0000 </r>
       <r>    3.8526    0.0000 </r>
       <r>    3.9027    0.0000 </r>
       <r>    3.9027    0.0000 </r>
       <r>    4.4832    0.0000 </r>
       <r>    4.4832    0.0000 </r>
       <r>    4.4832    0.0000 </r>
       <r>    4.4832    0.0000 </r>
       <r>    4.4832    0.0000 </r>
       <r>    4.4832    0.0000 </r>
       <r>    4.7848    0.0000 </r>
       <r>    4.7848    0.0000 </r>
       <r>    4.7848    0.0000 </r>
       <r>    4.7848    0.0000 </r>
       <r>    4.7848    0.0000 </r>
       <r>    4.7848    0.0000 </r>
       <r>    4.7848    0.0000 </r>
       <r>    4.7848    0.0000 </r>
       <r>    4.7848    0.0000 </r>
       <r>    4.7848    0.0000 </r>
       <r>    4.7848    0.0000 </r>
       <r>    4.7848    0.0000 </r>
       <r>    5.0827    0.0000 </r>
       <r>    5.0827    0.0000 </r>
       <r>    5.0827    0.0000 </r>
       <r>    5.0827    0.0000 </r>
       <r>    5.0827    0.0000 </r>
       <r>    5.0827    0.0000 </r>
       <r>    5.4447    0.0000 </r>
       <r>    5.4447    0.0000 </r>
       <r>    5.4447    0.0000 </r>
       <r>    5.4447    0.0000 </r>
       <r>    5.8054    0.0000 </r>
       <r>    5.8054    0.0000 </r>
       <r>    6.1247    0.0000 </r>
       <r>    6.1247    0.0000 </r>
       <r>    6.1247    0.0000 </r>
       <r>    6.1247    0.0000 </r>
       <r>    6.4721    0.0000 </r>
       <r>    6.4721    0.0000 </r>
       <r>    6.4721    0.0000 </r>
       <r>    6.4721    0.0000 </r>
       <r>    6.4721    0.0000 </r>
       <r>    6.4721    0.0000 </r>
       <r>    6.5179    0.0000 </r>
       <r>    6.5179    0.0000 </r>
       <r>    6.5179    0.0000 </r>
       <r>    6.5179    0.0000 </r>
       <r>    6.5179    0.0000 </r>
       <r>    6.5179    0.0000 </r>
       <r>    6.5179    0.0000 </r>
       <r>    6.5179    0.0000 </r>
       <r>    6.5179    0.0000 </r>
       <r>    6.5179    0.0000 </r>
       <r>    6.5179    0.0000 </r>
       <r>    6.5179    0.0000 </r>
       <r>    7.2222    0.0000 </r>
       <r>    7.2222    0.0000 </r>
       <r>    7.2222    0.0000 </r>
       <r>    7.2222    0.0000 </r>
       <r>    7.2636    0.0000 </r>
       <r>    7.2636    0.0000 </r>
       <r>    7.2884    0.0000 </r>
       <r>    7.2884    0.0000 </r>
       <r>    7.2884    0.0000 </r>
       <r>    7.2884    0.0000 </r>
       <r>    7.2884    0.0000 </r>
       <r>    7.2884    0.0000 </r>
       <r>    7.5469    0.0000 </r>
       <r>    7.5469    0.0000 </r>
       <r>    7.5469    0.0000 </r>
       <r>    7.5469    0.0000 </r>
       <r>    7.5700    0.0000 </r>
       <r>    7.5700    0.0000 </r>
       <r>    7.8804    0.0000 </r>
       <r>    7.9197    0.0000 </r>
       <r>    7.9197    0.0000 </r>
       <r>    7.9197    0.0000 </r>
       <r>    7.9197    0.0000 </r>
       <r>    8.1804    0.0000 </r>
       <r>    8.1804    0.0000 </r>
       <r>    8.1804    0.0000 </r>
       <r>    8.1804    0.0000 </r>
       <r>    8.1804    0.0000 </r>
       <r>    8.1804    0.0000 </r>
       <r>    8.2515    0.0000 </r>
       <r>    8.2515    0.0000 </r>
       <r>    8.4937    0.0000 </r>
       <r>    8.5008    0.0000 </r>
       <r>    8.5062    0.0000 </r>
       <r>    8.5178    0.0000 </r>
       <r>    8.5496    0.0000 </r>
      </set>
     </set>
    </set>
   </array>
  </eigenvalues>
  <separator name="orbital magnetization" >
   <v name="MAGDIPOLOUT">      0.00000000      0.00000000      0.00000000</v>
  </separator>
  <dos>
   <i name="efermi">      1.40160788 </i>
   <total>
    <array>
     <dimension dim="1">gridpoints</dimension>
     <dimension dim="2">spin</dimension>
     <field>energy</field>
     <field>total</field>
     <field>integrated</field>
     <set>
      <set comment="spin 1">
       <r>   -12.0637     0.0000     0.0000 </r>
       <r>   -11.9917     0.0000     0.0000 </r>
       <r>   -11.9197     0.0000     0.0000 </r>
       <r>   -11.8477     0.0000     0.0000 </r>
       <r>   -11.7757     0.0000     0.0000 </r>
       <r>   -11.7038     0.0000     0.0000 </r>
       <r>   -11.6318     0.0000     0.0000 </r>
       <r>   -11.5598     0.0000     0.0000 </r>
       <r>   -11.4878     0.0000     0.0000 </r>
       <r>   -11.4158     0.0000     0.0000 </r>
       <r>   -11.3439     0.0000     0.0000 </r>
       <r>   -11.2719     0.0000     0.0000 </r>
       <r>   -11.1999     0.0120     0.0009 </r>
       <r>   -11.1279     2.6984     0.1951 </r>
       <r>   -11.0559    18.6963     1.5409 </r>
       <r>   -10.9839     6.3540     1.9983 </r>
       <r>   -10.9120     8.0412     2.5771 </r>
       <r>   -10.8400    58.2029     6.7667 </r>
       <r>   -10.7680   125.0867    15.7708 </r>
       <r>   -10.6960   133.4746    25.3787 </r>
       <r>   -10.6240   274.5225    45.1396 </r>
       <r>   -10.5520   284.2690    65.6021 </r>
       <r>   -10.4801    87.6800    71.9136 </r>
       <r>   -10.4081     1.2003    72.0000 </r>
       <r>   -10.3361     0.0004    72.0000 </r>
       <r>   -10.2641     0.0000    72.0000 </r>
       <r>   -10.1921     0.0000    72.0000 </r>
       <r>   -10.1201     0.0000    72.0000 </r>
       <r>   -10.0482     0.0000    72.0000 </r>
       <r>    -9.9762     0.0000    72.0000 </r>
       <r>    -9.9042     0.0000    72.0000 </r>
       <r>    -9.8322     0.0000    72.0000 </r>
       <r>    -9.7602     0.0000    72.0000 </r>
       <r>    -9.6882     0.0000    72.0000 </r>
       <r>    -9.6163     0.0000    72.0000 </r>
       <r>    -9.5443     0.0000    72.0000 </r>
       <r>    -9.4723     0.0000    72.0000 </r>
       <r>    -9.4003     0.0000    72.0000 </r>
       <r>    -9.3283     0.0000    72.0000 </r>
       <r>    -9.2564     0.0000    72.0000 </r>
       <r>    -9.1844     0.0000    72.0000 </r>
       <r>    -9.1124     0.0000    72.0000 </r>
       <r>    -9.0404     0.0000    72.0000 </r>
       <r>    -8.9684     0.0000    72.0000 </r>
       <r>    -8.8964     0.0000    72.0000 </r>
       <r>    -8.8245     0.0000    72.0000 </r>
       <r>    -8.7525     0.0000    72.0000 </r>
       <r>    -8.6805     0.0000    72.0000 </r>
       <r>    -8.6085     0.0000    72.0000 </r>
       <r>    -8.5365     0.0000    72.0000 </r>
       <r>    -8.4645     0.0000    72.0000 </r>
       <r>    -8.3926     0.0000    72.0000 </r>
       <r>    -8.3206     0.0000    72.0000 </r>
       <r>    -8.2486     0.0000    72.0000 </r>
       <r>    -8.1766     0.0000    72.0000 </r>
       <r>    -8.1046     0.0000    72.0000 </r>
       <r>    -8.0326     0.0000    72.0000 </r>
       <r>    -7.9607     0.0000    72.0000 </r>
       <r>    -7.8887     0.0000    72.0000 </r>
       <r>    -7.8167     0.0000    72.0000 </r>
       <r>    -7.7447     0.0000    72.0000 </r>
       <r>    -7.6727     0.0000    72.0000 </r>
       <r>    -7.6007     0.0000    72.0000 </r>
       <r>    -7.5288     0.0000    72.0000 </r>
       <r>    -7.4568     0.0000    72.0000 </r>
       <r>    -7.3848     0.0000    72.0000 </r>
       <r>    -7.3128     0.0000    72.0000 </r>
       <r>    -7.2408     0.0000    72.0000 </r>
       <r>    -7.1688     0.0000    72.0000 </r>
       <r>    -7.0969     0.0000    72.0000 </r>
       <r>    -7.0249     0.0000    72.0000 </r>
       <r>    -6.9529     0.0000    72.0000 </r>
       <r>    -6.8809     0.0000    72.0000 </r>
       <r>    -6.8089     0.0000    72.0000 </r>
       <r>    -6.7370     0.0000    72.0000 </r>
       <r>    -6.6650     0.0038    72.0003 </r>
       <r>    -6.5930     2.6009    72.1875 </r>
       <r>    -6.5210    72.8966    77.4348 </r>
       <r>    -6.4490   354.3049   102.9387 </r>
       <r>    -6.3770   635.1906   148.6615 </r>
       <r>    -6.3051   669.8682   196.8805 </r>
       <r>    -6.2331   467.2291   230.5130 </r>
       <r>    -6.1611   587.3558   272.7925 </r>
       <r>    -6.0891   749.3117   326.7301 </r>
       <r>    -6.0171   619.7706   371.3429 </r>
       <r>    -5.9451   131.7524   380.8268 </r>
       <r>    -5.8732   229.8920   397.3751 </r>
       <r>    -5.8012    64.2137   401.9974 </r>
       <r>    -5.7292    13.9246   402.9997 </r>
       <r>    -5.6572    20.5257   404.4772 </r>
       <r>    -5.5852   159.4057   415.9517 </r>
       <r>    -5.5132   206.4110   430.8097 </r>
       <r>    -5.4413    16.4879   431.9966 </r>
       <r>    -5.3693     0.0473   432.0000 </r>
       <r>    -5.2973     0.0000   432.0000 </r>
       <r>    -5.2253     0.0000   432.0000 </r>
       <r>    -5.1533     0.0000   432.0000 </r>
       <r>    -5.0813     0.0000   432.0000 </r>
       <r>    -5.0094     0.0000   432.0000 </r>
       <r>    -4.9374     0.0000   432.0000 </r>
       <r>    -4.8654     0.0000   432.0000 </r>
       <r>    -4.7934     0.0000   432.0000 </r>
       <r>    -4.7214     0.0000   432.0000 </r>
       <r>    -4.6494     0.0000   432.0000 </r>
       <r>    -4.5775     0.0000   432.0000 </r>
       <r>    -4.5055     0.0000   432.0000 </r>
       <r>    -4.4335     0.0000   432.0000 </r>
       <r>    -4.3615     0.0000   432.0000 </r>
       <r>    -4.2895     0.0000   432.0000 </r>
       <r>    -4.2176     0.0000   432.0000 </r>
       <r>    -4.1456     0.0000   432.0000 </r>
       <r>    -4.0736     0.0000   432.0000 </r>
       <r>    -4.0016     0.0000   432.0000 </r>
       <r>    -3.9296     0.0000   432.0000 </r>
       <r>    -3.8576     0.0000   432.0000 </r>
       <r>    -3.7857     0.0000   432.0000 </r>
       <r>    -3.7137     0.0000   432.0000 </r>
       <r>    -3.6417     0.0000   432.0000 </r>
       <r>    -3.5697     0.0000   432.0000 </r>
       <r>    -3.4977     0.0000   432.0000 </r>
       <r>    -3.4257     0.0000   432.0000 </r>
       <r>    -3.3538     0.0000   432.0000 </r>
       <r>    -3.2818     0.0000   432.0000 </r>
       <r>    -3.2098     0.1241   432.0089 </r>
       <r>    -3.1378     7.6965   432.5630 </r>
       <r>    -3.0658    17.9498   433.8550 </r>
       <r>    -2.9938     2.0074   433.9995 </r>
       <r>    -2.9219     0.0255   434.0014 </r>
       <r>    -2.8499     6.7666   434.4884 </r>
       <r>    -2.7779    76.0909   439.9657 </r>
       <r>    -2.7059   128.7341   449.2323 </r>
       <r>    -2.6339    64.4756   453.8735 </r>
       <r>    -2.5619     2.6957   454.0675 </r>
       <r>    -2.4900    39.3018   456.8966 </r>
       <r>    -2.4180    66.1795   461.6603 </r>
       <r>    -2.3460    58.4752   465.8696 </r>
       <r>    -2.2740   230.4388   482.4572 </r>
       <r>    -2.2020    48.8754   485.9754 </r>
       <r>    -2.1300     0.3419   486.0000 </r>
       <r>    -2.0581     0.0001   486.0000 </r>
       <r>    -1.9861     0.0049   486.0004 </r>
       <r>    -1.9141     2.3944   486.1727 </r>
       <r>    -1.8421    33.9729   488.6182 </r>
       <r>    -1.7701    81.9476   494.5170 </r>
       <r>    -1.6982    96.9717   501.4973 </r>
       <r>    -1.6262     6.9699   501.9990 </r>
       <r>    -1.5542     0.0139   502.0000 </r>
       <r>    -1.4822     0.0193   502.0014 </r>
       <r>    -1.4102     8.3791   502.6045 </r>
       <r>    -1.3382   109.5546   510.4906 </r>
       <r>    -1.2663   103.7088   517.9558 </r>
       <r>    -1.1943    81.6975   523.8367 </r>
       <r>    -1.1223    29.6049   525.9677 </r>
       <r>    -1.0503     0.4485   526.0000 </r>
       <r>    -0.9783     0.0002   526.0000 </r>
       <r>    -0.9063     0.0000   526.0000 </r>
       <r>    -0.8344     0.0000   526.0000 </r>
       <r>    -0.7624     0.1987   526.0143 </r>
       <r>    -0.6904    20.9352   527.5213 </r>
       <r>    -0.6184    76.3013   533.0137 </r>
       <r>    -0.5464    14.2108   534.0366 </r>
       <r>    -0.4744    43.6041   537.1753 </r>
       <r>    -0.4025   148.8748   547.8918 </r>
       <r>    -0.3305    29.1770   549.9920 </r>
       <r>    -0.2585    26.6476   551.9102 </r>
       <r>    -0.1865   218.5381   567.6412 </r>
       <r>    -0.1145    87.0533   573.9075 </r>
       <r>    -0.0425     4.9466   574.2636 </r>
       <r>     0.0294   154.9446   585.4170 </r>
       <r>     0.1014   264.5543   604.4603 </r>
       <r>     0.1734    21.3409   605.9965 </r>
       <r>     0.2454     1.2634   606.0874 </r>
       <r>     0.3174    56.5216   610.1560 </r>
       <r>     0.3893   123.9306   619.0769 </r>
       <r>     0.4613    38.8752   621.8753 </r>
       <r>     0.5333    20.3922   623.3431 </r>
       <r>     0.6053   113.6788   631.5261 </r>
       <r>     0.6773    36.7806   634.1736 </r>
       <r>     0.7493    56.4665   638.2382 </r>
       <r>     0.8212    50.3253   641.8608 </r>
       <r>     0.8932     1.9318   641.9999 </r>
       <r>     0.9652     0.0251   642.0017 </r>
       <r>     1.0372     4.1321   642.2991 </r>
       <r>     1.1092    38.4058   645.0637 </r>
       <r>     1.1812    38.0722   647.8042 </r>
       <r>     1.2531     2.7137   647.9996 </r>
       <r>     1.3251     0.0060   648.0000 </r>
       <r>     1.3971     0.0000   648.0000 </r>
       <r>     1.4691     0.0000   648.0000 </r>
       <r>     1.5411     0.0000   648.0000 </r>
       <r>     1.6131     0.0000   648.0000 </r>
       <r>     1.6850     0.0000   648.0000 </r>
       <r>     1.7570     0.0000   648.0000 </r>
       <r>     1.8290     0.0000   648.0000 </r>
       <r>     1.9010     0.0000   648.0000 </r>
       <r>     1.9730     0.0000   648.0000 </r>
       <r>     2.0450     0.0000   648.0000 </r>
       <r>     2.1169     0.0007   648.0000 </r>
       <r>     2.1889     0.5834   648.0420 </r>
       <r>     2.2609    13.3403   649.0023 </r>
       <r>     2.3329    13.2840   649.9585 </r>
       <r>     2.4049     0.5753   650.0000 </r>
       <r>     2.4769     0.0006   650.0000 </r>
       <r>     2.5488     0.0000   650.0000 </r>
       <r>     2.6208     0.0000   650.0000 </r>
       <r>     2.6928     0.0000   650.0000 </r>
       <r>     2.7648     0.0000   650.0000 </r>
       <r>     2.8368     0.0000   650.0000 </r>
       <r>     2.9087     0.0000   650.0000 </r>
       <r>     2.9807     0.0000   650.0000 </r>
       <r>     3.0527     0.0000   650.0000 </r>
       <r>     3.1247     0.0000   650.0000 </r>
       <r>     3.1967     0.0000   650.0000 </r>
       <r>     3.2687     0.0000   650.0000 </r>
       <r>     3.3406     0.0000   650.0000 </r>
       <r>     3.4126     0.0000   650.0000 </r>
       <r>     3.4846     0.0000   650.0000 </r>
       <r>     3.5566     0.0000   650.0000 </r>
       <r>     3.6286     0.0000   650.0000 </r>
       <r>     3.7006     0.0002   650.0000 </r>
       <r>     3.7725     0.3326   650.0240 </r>
       <r>     3.8445    13.8187   651.0187 </r>
       <r>     3.9165    48.8913   654.5380 </r>
       <r>     3.9885    19.8860   655.9695 </r>
       <r>     4.0605     0.4242   656.0000 </r>
       <r>     4.1325     0.0002   656.0000 </r>
       <r>     4.2044     0.0000   656.0000 </r>
       <r>     4.2764     0.0000   656.0000 </r>
       <r>     4.3484     0.0115   656.0008 </r>
       <r>     4.4204     6.2896   656.4536 </r>
       <r>     4.4924    94.0958   663.2268 </r>
       <r>     4.5644    64.4986   667.8696 </r>
       <r>     4.6363     1.8142   668.0002 </r>
       <r>     4.7083     5.0874   668.3664 </r>
       <r>     4.7803   144.7578   678.7865 </r>
       <r>     4.8523   174.1830   691.3247 </r>
       <r>     4.9243     9.3687   691.9991 </r>
       <r>     4.9963     1.2197   692.0869 </r>
       <r>     5.0682    55.6767   696.0946 </r>
       <r>     5.1402   101.1732   703.3774 </r>
       <r>     5.2122     8.6287   703.9985 </r>
       <r>     5.2842     0.0211   704.0000 </r>
       <r>     5.3562     0.6824   704.0491 </r>
       <r>     5.4281    34.8754   706.5596 </r>
       <r>     5.5001    69.0863   711.5326 </r>
       <r>     5.5721     6.4758   711.9987 </r>
       <r>     5.6441     0.0175   712.0000 </r>
       <r>     5.7161     0.3206   712.0231 </r>
       <r>     5.7881    17.0233   713.2485 </r>
       <r>     5.8600    34.8331   715.7559 </r>
       <r>     5.9320     3.3823   715.9993 </r>
       <r>     6.0040     0.0452   716.0026 </r>
       <r>     6.0760     9.3272   716.6740 </r>
       <r>     6.1480    73.4375   721.9602 </r>
       <r>     6.2200    27.9460   723.9718 </r>
       <r>     6.2919     0.3912   724.0000 </r>
       <r>     6.3639     0.1864   724.0134 </r>
       <r>     6.4359    28.6802   726.0779 </r>
       <r>     6.5079   241.4357   743.4571 </r>
       <r>     6.5799   216.3611   759.0314 </r>
       <r>     6.6519    13.4307   759.9982 </r>
       <r>     6.7238     0.0252   760.0000 </r>
       <r>     6.7958     0.0000   760.0000 </r>
       <r>     6.8678     0.0000   760.0000 </r>
       <r>     6.9398     0.0000   760.0000 </r>
       <r>     7.0118     0.0000   760.0000 </r>
       <r>     7.0838     0.0050   760.0004 </r>
       <r>     7.1557     3.4225   760.2467 </r>
       <r>     7.2277    74.8766   765.6366 </r>
       <r>     7.2997   182.5319   778.7757 </r>
       <r>     7.3717    70.9707   783.8844 </r>
       <r>     7.4437     1.8092   784.0146 </r>
       <r>     7.5156    24.1653   785.7541 </r>
       <r>     7.5876   111.2851   793.7647 </r>
       <r>     7.6596    30.6595   795.9717 </r>
       <r>     7.7316     0.3936   796.0000 </r>
       <r>     7.8036     0.4720   796.0340 </r>
       <r>     7.8756    23.7097   797.7407 </r>
       <r>     7.9475    90.0172   804.2204 </r>
       <r>     8.0195    24.4588   805.9810 </r>
       <r>     8.0915     1.2561   806.0714 </r>
       <r>     8.1635    52.0317   809.8168 </r>
       <r>     8.2355   121.7848   818.5832 </r>
       <r>     8.3075    44.2840   821.7709 </r>
       <r>     8.3794     3.2058   822.0017 </r>
       <r>     8.4514     8.0528   822.5813 </r>
       <r>     8.5234    75.7504   828.0341 </r>
       <r>     8.5954    51.6710   831.7535 </r>
       <r>     8.6674     3.4123   831.9991 </r>
       <r>     8.7394     0.0124   832.0000 </r>
       <r>     8.8113     0.0000   832.0000 </r>
       <r>     8.8833     0.0000   832.0000 </r>
       <r>     8.9553     0.0000   832.0000 </r>
       <r>     9.0273     0.0000   832.0000 </r>
       <r>     9.0993     0.0000   832.0000 </r>
       <r>     9.1713     0.0000   832.0000 </r>
       <r>     9.2432     0.0000   832.0000 </r>
       <r>     9.3152     0.0000   832.0000 </r>
       <r>     9.3872     0.0000   832.0000 </r>
       <r>     9.4592     0.0000   832.0000 </r>
       <r>     9.5312     0.0000   832.0000 </r>
      </set>
     </set>
    </array>
   </total>
  </dos>
 </calculation>
 <structure name="finalpos" >
  <crystal>
   <varray name="basis" >
    <v>       6.25325715     -10.83095910       0.00000000 </v>
    <v>       6.25325715      10.83095910       0.00000000 </v>
    <v>       0.00000000       0.00000000      13.55923482 </v>
   </varray>
   <i name="volume">   1836.70065798 </i>
   <varray name="rec_basis" >
    <v>       0.07995833      -0.04616396       0.00000000 </v>
    <v>       0.07995833       0.04616396       0.00000000 </v>
    <v>       0.00000000       0.00000000       0.07375047 </v>
   </varray>
  </crystal>
  <varray name="positions" >
   <v>       0.22222222       0.11111111       0.25011218 </v>
   <v>       0.22222222       0.77777778       0.75011218 </v>
   <v>       0.11111111       0.88888889       0.50011218 </v>
   <v>       0.55555556       0.77777778       0.25011218 </v>
   <v>       0.44444444       0.88888889       0.50011218 </v>
   <v>       0.55555556       0.11111111       0.25011218 </v>
   <v>       0.44444444       0.22222222       0.00011218 </v>
   <v>       0.88888889       0.44444444       0.75011218 </v>
   <v>       0.77777778       0.55555556       0.00011218 </v>
   <v>       0.55555556       0.11111111       0.75011218 </v>
   <v>       0.44444444       0.22222222       0.50011218 </v>
   <v>       0.55555556       0.44444444       0.25011218 </v>
   <v>       0.44444444       0.55555556       0.00011218 </v>
   <v>       0.77777778       0.22222222       0.50011218 </v>
   <v>       0.88888889       0.11111111       0.75011218 </v>
   <v>       0.88888889       0.44444444       0.25011218 </v>
   <v>       0.55555556       0.44444444       0.75011218 </v>
   <v>       0.77777778       0.55555556       0.50011218 </v>
   <v>       0.22222222       0.77777778       0.25011218 </v>
   <v>       0.11111111       0.22222222       0.00011218 </v>
   <v>       0.77777778       0.88888889       0.50011218 </v>
   <v>       0.88888889       0.77777778       0.75011218 </v>
   <v>       0.22222222       0.11111111       0.75011218 </v>
   <v>       0.11111111       0.22222222       0.50011218 </v>
   <v>       0.55555556       0.77777778       0.75011218 </v>
   <v>       0.11111111       0.88888889       0.00011218 </v>
   <v>       0.88888889       0.11111111       0.25011218 </v>
   <v>       0.11111111       0.55555556       0.00011218 </v>
   <v>       0.77777778       0.88888889       0.00011218 </v>
   <v>       0.88888889       0.77777778       0.25011218 </v>
   <v>       0.22222222       0.44444444       0.75011218 </v>
   <v>       0.11111111       0.55555556       0.50011218 </v>
   <v>       0.77777778       0.22222222       0.00011218 </v>
   <v>       0.44444444       0.88888889       0.00011218 </v>
   <v>       0.22222222       0.44444444       0.25011218 </v>
   <v>       0.44444444       0.55555556       0.50011218 </v>
   <v>       0.88888889       0.11111111       0.43838781 </v>
   <v>       0.77777778       0.22222222       0.18838781 </v>
   <v>       0.88888889       0.44444444       0.43838781 </v>
   <v>       0.77777778       0.22222222       0.68838781 </v>
   <v>       0.77777778       0.55555556       0.18838781 </v>
   <v>       0.88888889       0.44444444       0.93838781 </v>
   <v>       0.77777778       0.55555556       0.68838781 </v>
   <v>       0.88888889       0.77777778       0.43838781 </v>
   <v>       0.77777778       0.88888889       0.18838781 </v>
   <v>       0.88888889       0.11111111       0.93838781 </v>
   <v>       0.44444444       0.88888889       0.68838781 </v>
   <v>       0.44444444       0.55555556       0.18838781 </v>
   <v>       0.44444444       0.88888889       0.18838781 </v>
   <v>       0.22222222       0.11111111       0.43838781 </v>
   <v>       0.11111111       0.22222222       0.18838781 </v>
   <v>       0.22222222       0.11111111       0.93838781 </v>
   <v>       0.11111111       0.22222222       0.68838781 </v>
   <v>       0.22222222       0.44444444       0.43838781 </v>
   <v>       0.11111111       0.55555556       0.18838781 </v>
   <v>       0.22222222       0.44444444       0.93838781 </v>
   <v>       0.11111111       0.55555556       0.68838781 </v>
   <v>       0.22222222       0.77777778       0.43838781 </v>
   <v>       0.11111111       0.88888889       0.18838781 </v>
   <v>       0.22222222       0.77777778       0.93838781 </v>
   <v>       0.11111111       0.88888889       0.68838781 </v>
   <v>       0.55555556       0.11111111       0.43838781 </v>
   <v>       0.44444444       0.22222222       0.18838781 </v>
   <v>       0.55555556       0.11111111       0.93838781 </v>
   <v>       0.44444444       0.22222222       0.68838781 </v>
   <v>       0.55555556       0.44444444       0.43838781 </v>
   <v>       0.88888889       0.77777778       0.93838781 </v>
   <v>       0.55555556       0.44444444       0.93838781 </v>
   <v>       0.44444444       0.55555556       0.68838781 </v>
   <v>       0.55555556       0.77777778       0.43838781 </v>
   <v>       0.55555556       0.77777778       0.93838781 </v>
   <v>       0.77777778       0.88888889       0.68838781 </v>
  </varray>
 </structure>
</modeling>
