72
Lattice="12.39778545 0.0 0.0 -6.19889272 10.73679715 0.0 0.0 0.0 13.44794642" Properties=species:S:1:pos:R:3:forces:R:3 ref_energy_eV=-269.4130829 ref_gap_eV=2.2041 energy=-242.52120431 stress="-0.0017265908789873164 -0.002226667948892342 0.00039355767760807414 -0.002226667948892342 0.002692360894547389 0.0013567935468404009 0.00039355767760807414 0.0013567935468404009 -0.004218063509518414" free_energy=-242.52120431 pbc="T T T"
Cd       0.00797196       2.28322361       0.12773518      -0.35328990      -0.38757358      -0.40006960
Cd       4.13543718       2.25188494      13.37831927       0.06291431       0.46924053      -0.24187564
Cd       7.96752218       2.42011864       0.02183234       0.42319199      -0.21027197      -0.46484747
Cd      -2.32715223       5.59919763       0.01804701       0.66857652       0.40870406       0.28726485
Cd       1.93112711       5.83467760       0.03219465       0.10464156      -0.10378712      -0.11420886
Cd       6.18354129       6.04769512       0.08313157      -0.45504514       0.49562893      -0.54792692
Cd      -4.04674844       9.45262328      13.31692913      -0.19605058       0.28105577       0.11830940
Cd      -0.12819508       9.40436342       0.04131007       0.47467044      -0.11423418       0.07167237
Cd       3.96187618       9.50034748      13.42715240       0.38685421       0.69756306      -0.35695015
Cd       0.13968790       2.49839869       6.76756554       0.06875340      -0.18277710       0.16580883
Cd       4.05733522       2.24107986       6.57516644       0.90918921       0.68553060       0.14995253
Cd       8.46530789       2.36759508       6.74224480      -0.47995683       0.35060658       0.09204626
Cd      -2.03042964       6.01868010       6.56391400      -0.43862662      -0.23846506      -0.13849039
Cd       2.12155207       5.92350258       6.84929180       0.43156417       0.04997240       0.23477901
Cd       6.10501112       5.90554722       6.98539228      -0.01347545      -0.20761315      -1.13101964
Cd      -3.99259572       9.21538011       6.69999687      -0.86236220       0.71711365       0.50062590
Cd       0.23651845       9.75353641       6.71532726       0.16785953      -1.10686586       0.08400857
Cd       4.27764325       9.66661097       6.53639655       0.07748331      -0.41131469       0.54340274
Cd       2.15050709       1.10431781       3.44683804       0.21656966      -0.07109556      -0.43242017
Cd       6.24274425       1.33013638       3.30149330      -0.09463918      -0.10881682       0.11502722
Cd      10.36774038       1.06630472       3.26571464      -0.07612753       0.09264245      -0.09605537
Cd      -0.01511346       4.64355686       3.38830356       0.20369368       0.25483818       0.14925778
Cd       4.15539712       4.80093716       3.27629387       0.22034070      -0.18806615       0.06077787
Cd       8.31341953       4.85240324       3.38484489      -0.10733692      -0.16328977      -0.09301194
Cd      -2.07389894       8.52948989       3.48935735       0.36542012      -0.42075518      -0.22416853
Cd       1.93061793       8.20339672       3.45213518       0.48357685       0.39965852       0.06160083
Cd       6.29361912       8.44777084       3.29515448      -0.43402026      -0.59299568       0.26513751
Cd       2.17536999       1.29902941      10.10300737      -0.34732841      -0.27827206       0.04279484
Cd       6.27346764       1.27687102      10.01802456      -0.34695924       0.11101037      -0.23475492
Cd      10.56406973       1.38402759      10.04106344      -1.62510035      -1.26894835       1.07605460
Cd      -0.31306231       4.98200959      10.23855460       0.17288453      -0.11995559      -1.24496933
Cd       3.89213771       4.80017549      10.28368215      -0.08386719       0.03936058      -1.07508283
Cd       8.35223141       4.80088422       9.89428287      -0.85816566      -0.25586168       0.28581053
Cd      -2.11260446       8.46278260      10.19518659       0.33322328       0.10943636      -1.08238758
Cd       2.07899072       8.49439323      10.08686809      -0.18300987      -0.21613498       0.22773022
Cd       6.21360958       8.43047375      10.09207634      -0.34328923      -0.19637468      -0.27032762
S        0.12077731       2.29644576       2.58302063      -0.31863385      -0.05821460       0.24878990
S        4.11783728       2.40139291       2.38520107       0.11919387      -0.14423751       0.86307628
S        8.32482977       2.44564226       2.47717494       0.15347212       0.00145199       0.25033602
S       -1.99045583       5.97980409       2.61204412      -0.10514818       0.26819057      -0.48402870
S        2.07596442       5.90604412       2.55004949      -0.51076538      -0.12159931      -0.17619292
S        6.23282888       5.99704159       2.51403455       0.04984602      -0.00943811       0.33263599
S       -4.10224756       9.45027868       2.43226928       0.56680537       0.71185769      -0.13442122
S        0.05200004       9.60988847       2.55354421      -0.20524143      -0.05363673       0.06211119
S        4.19171123       9.41414636       2.43963553      -0.69772997       0.21857288       0.74769547
S        0.02853791       2.48513230       9.35615886       1.66389599       1.16678725      -0.98597742
S        4.07885313       2.48302188       9.11690496       0.64426835       0.10060510       0.27699894
S        8.39299236       2.39863280       9.24913002      -0.27956210      -0.00410964      -0.01416207
S       -2.23733709       6.11703314       9.07604916       0.77192825       0.40594685       0.23760401
S        1.82332433       6.05741814       9.35733085       0.49151048      -0.12894197       0.03293707
S        6.07620579       5.86066580       9.36653731      -0.01948714       0.56514808       0.63710753
S       -4.11534334       9.60061875       9.24113508      -0.19043943       0.10224409      -0.12144742
S        0.01983677       9.64319735       9.16208859      -0.37107294      -0.23503629       0.71637490
S        4.07607088       9.69511288       9.28693730       0.67335376      -0.16276784      -0.55502605
S        2.10888370       1.01365748       5.91125262      -0.72733029      -0.21177405       0.08949950
S        6.39611000       1.20749113       5.86664524      -0.59738095       1.16152407      -0.52616265
S       10.46065497       1.32935324       5.83383333       0.50649257      -0.42104483      -0.33717482
S        0.09702234       4.88772312       5.95126510      -0.41528848      -0.60014608      -0.48013881
S        4.10125264       4.75757660       5.78308414       0.21331171      -0.33585744       0.54396355
S        8.18278574       4.72102726       5.86321534       0.33053286       0.50315476       0.48517634
S       -1.86414980       8.47805107       5.98388363       0.63106612      -0.56081489      -0.53420534
S        2.19593946       8.27022082       5.99318356       0.01624406       0.59387355      -0.37531174
S        6.31996095       8.19552718       5.81477409      -0.42477637       0.28070575       0.30394393
S        2.05766064       1.17062236      12.64090678      -0.16034326      -0.32223265      -0.29939385
S        6.08861870       0.98468315      12.52000087       0.31884687       0.39412477       0.05964823
S       10.21953149       1.30447189      12.66897950      -0.06374824      -0.36873838      -0.08227632
S       -0.07751548       4.55396581      12.55154571      -0.24669029       0.62606906       1.30359095
S        4.11280012       4.75415038      12.65755709      -0.06182296      -0.15156862       0.91785823
S        7.99204097       4.78138545      12.44124176       0.42250386      -0.44276411       0.07648278
S       -2.06843412       8.17863390      12.56229425      -0.01990680      -0.63846958       0.85348104
S        2.01744477       8.21379477      12.69349027      -0.49388886       0.16841699      -0.49642960
S        6.16217594       8.50955702      12.59417100      -0.13677224      -0.61617364       0.17954218
