72
Lattice="12.39778545 0.0 0.0 -6.19889272 10.73679715 0.0 0.0 0.0 13.44794642" Properties=species:S:1:pos:R:3:forces:R:3 ref_energy_eV=-269.41768295 ref_gap_eV=2.209 energy=-242.57477993 stress="-0.0010340264166211457 -0.0015118601897901318 0.0006529905107950007 -0.0015118601897901318 -0.0006921633892312505 -0.0011905979498362182 0.0006529905107950007 -0.0011905979498362182 0.00039901278779164173" free_energy=-242.57477993 pbc="T T T"
Cd       0.20100034       2.37611419      13.40732959      -0.66355026       0.34014477       0.09924978
Cd       4.11349390       2.40523980       0.23056921       0.69893876      -0.67349129       0.55018522
Cd       8.10210634       2.42188140       0.14804952      -0.27923424      -0.18979749      -0.33931672
Cd      -1.92000015       5.77649693       0.11089015      -0.07230921       0.19418726      -0.54578476
Cd       2.19174554       5.97671383      13.25771123      -0.00274021      -0.15451411       0.37316859
Cd       6.17065181       5.98801055      13.35937582      -0.02732175       0.11555873      -0.31949078
Cd      -4.20119534       9.46932072      13.44155300       0.41946817       0.27462629      -0.02451410
Cd      -0.18114255       9.34157871       0.00336024       0.40705408       0.99590658       0.32796091
Cd       3.93090379       9.80927584      13.41351268       0.28302623       0.01831927      -0.32364633
Cd       0.19539257       2.41965534       6.63140400       0.12846693       0.04198888       0.41178530
Cd       4.36305823       2.45937494       6.76897286      -0.27495085       0.54479491      -0.18469604
Cd       8.52679155       2.47460842       6.71637633      -0.48508102       0.03161108       0.04419254
Cd      -2.01304280       5.81972714       6.67837109      -0.16556068      -0.08844616      -0.43861345
Cd       1.99460092       6.21977065       6.93311729       0.27091780       0.06097861      -0.94582534
Cd       6.13638254       5.95182271       6.82848285      -0.43134872      -0.64548982       0.12846769
Cd      -4.17049867       9.50202715       6.61054409      -0.83253136       0.73371489       0.38548027
Cd      -0.08809903       9.57344242       6.69931573       0.25176936       0.30223432       0.12842901
Cd       4.23349945       9.50644330       6.56678648       0.39215491       0.38160408       0.08732933
Cd       1.84700739       1.12383849       3.47117895       0.84288431      -0.21451403       0.01186001
Cd       6.33469038       0.93408911       3.49758131      -0.55410862       1.04471162      -0.01920809
Cd      10.54211065       1.36650986       3.26579196      -0.67340115      -0.39562446       0.32373441
Cd       0.04032033       5.08760191       3.29003162      -0.08761220      -0.33086099       0.10848135
Cd       4.02729756       4.75006696       3.39511925       0.53645971      -0.14687549       0.07379483
Cd       8.17795345       4.74142030       3.31356243      -0.11579969      -0.01389737       0.07778440
Cd      -2.08382188       8.40973230       3.40937838      -0.14143014       0.07662147       0.40098968
Cd       2.24543998       8.34930356       3.24255553      -0.73713699       0.44972639       0.74755697
Cd       6.04756561       8.21448643       3.28200494       0.08689732       0.44552530      -0.49515990
Cd       2.02578438       1.12657734      10.13309971       0.20140126      -0.03539411      -0.07244523
Cd       6.28417554       1.14298628       9.99320435      -0.38783413       0.05675784       0.52905565
Cd      10.29450884       1.20176004      10.16044974      -0.32507483       0.06234754      -0.02888632
Cd      -0.12952840       4.61946821       9.89570123      -0.05733991       0.57163479       0.48427006
Cd       3.97235950       4.68018673       9.99232687      -0.03696363       0.07075039       0.19829927
Cd       8.15504780       4.76359522      10.21116719       0.20623083      -0.13708339      -0.44096127
Cd      -2.13452219       8.19015588      10.02656763       0.40081727       0.61104494       0.31816163
Cd       2.23865207       8.52218339      10.18882598      -0.98572806      -0.44997117       0.09277867
Cd       6.17972588       8.42109891      10.21548304       0.00660140      -0.03485555      -0.35652053
S        0.11649666       2.56392161       2.52359308      -0.12443268       0.47312162      -0.35543658
S        4.05512978       2.33952899       2.77331270       0.41610548      -0.44628669      -0.35744221
S        8.24622669       2.31361487       2.63589553       0.27781150       0.18261716      -0.07662135
S       -2.17919898       6.03798207       2.54094295       0.31639870      -0.24591103       0.38915900
S        2.17706799       6.09167390       2.50249836      -0.43604062      -0.69921981      -0.93151803
S        6.15847892       5.93257067       2.37161434      -0.27817761      -0.43757808       0.58669818
S       -4.20622053       9.46325614       2.52692696      -0.13853665       0.34083390       0.26813719
S        0.02794622       9.48007652       2.57333865      -0.15069900      -0.73487282      -0.29507408
S        4.06276948       9.64602800       2.39897607       1.10022893       0.58376598       0.77073395
S       -0.04454977       2.29866141       9.30264787       0.32165874      -0.41015154      -0.69667938
S        4.11120211       2.28027239       9.23790058       0.04392256       0.21827194       0.27804397
S        8.24756249       2.41676017       9.19670347       0.31028293       0.14304132       0.37745428
S       -2.15092515       5.90483688       9.16837483      -0.23007331      -0.52545087       0.19459651
S        1.84932708       6.03384121       9.30896759       0.74432728       0.14959372       0.91826276
S        6.10888524       5.95189637       9.36221931      -0.19695268       0.26698655      -0.04598342
S       -4.11297989       9.50011578       9.20475072      -0.47235881       0.01015668       0.18400369
S       -0.01156564       9.51336231       9.26817204       0.05535447      -0.43516734      -0.02239194
S        4.11883766       9.61194328       9.14130761       0.69148084       0.02206684       0.10013854
S        2.30873916       1.25636374       5.97535723      -0.69771310      -0.67143694      -0.21009434
S        6.37351665       1.35397046       5.93761745       0.07052314      -0.82716596       0.18764381
S       10.49182610       1.32211599       5.90056688       0.36793652      -0.82350938      -0.55881620
S        0.20417702       4.81090176       5.81459631      -0.74397442       0.22980813       0.19331664
S        3.92298848       4.86673676       5.90299074       0.68017738      -0.04017254       0.50051567
S        8.11718645       4.76175858       5.83884753       0.67251504       0.30937058       0.10081496
S       -2.19903853       8.31421184       6.07657038       1.37004241      -0.53344721      -1.03133866
S        2.12227821       8.52547798       5.83063850      -0.62386204      -0.33278187      -0.13341503
S        6.26049540       8.12874870       5.73566951      -0.28001137       1.17873063       0.44867706
S        2.20401488       1.24750170      12.66520211      -0.25233806      -1.06676742      -0.34544217
S        6.15018691       1.05045388      12.63495916       0.03790611       0.37804639       0.05429883
S       10.27051323       1.43978013      12.67732409       0.36022838      -0.11507960      -0.11038011
S        0.10564674       4.77220184      12.47686295      -0.11344419      -0.11703737       0.26807494
S        4.19230731       4.58019827      12.64165785      -0.09045969       1.06708688      -0.73568966
S        8.29404036       4.79486507      12.66763269      -0.06512365      -0.06640574       0.26705811
S       -2.08807290       8.19782604      12.64613117      -1.05167773      -0.34515491      -0.52161867
S        1.99668046       8.41867648      12.75242078       0.34589203      -0.29978134      -0.72126483
S        6.03147861       8.48118053      12.72215376      -0.03294748      -0.29409436      -0.30636815
