72
Lattice="12.39778545 0.0 0.0 -6.19889272 10.73679715 0.0 0.0 0.0 13.44794642" Properties=species:S:1:pos:R:3:forces:R:3 ref_energy_eV=-267.12894106 ref_gap_eV=2.1092 energy=-240.44735154 stress="-0.0063709194713522065 -0.003084265227595562 0.0004389653368233696 -0.003084265227595562 -0.0029066421077063817 -9.984211348691775e-06 0.0004389653368233696 -9.984211348691775e-06 -0.009428029409427769" free_energy=-240.44735154 pbc="T T T"
Cd      -0.02270338       2.28178832       0.09070600      -0.02260417       0.32804886      -0.09499952
Cd       4.12037220       2.37276378      13.34748421       0.87368614       0.28250479       0.84846583
Cd       8.06253143       2.51663181      13.42627236       0.74252733      -0.67267359       0.91728138
Cd      -1.96052919       5.91919530      13.39357731      -0.49287909       0.35341860      -0.22270850
Cd       2.03517558       5.98027469       0.08298997       0.41536919       0.55253961       0.74505984
Cd       6.22234680       5.91645892      13.30670237       0.06322737       0.30389558       0.51936592
Cd      -4.10836140       9.48095930      13.44168210       0.17908981       0.43784673      -0.18680260
Cd       0.02196343       9.51711761       0.03350206       0.25967497       0.06824889      -0.56106857
Cd       4.16970454       9.43743855       0.13596385      -0.55042652       0.61666503      -0.66177052
Cd      -0.13758802       2.50683491       6.74157684       0.23202630      -0.50562790       0.33385639
Cd       4.02528447       2.46142642       6.65327359       0.44603140      -0.35530959       0.20152160
Cd       8.24460779       2.43505127       6.70286787      -0.52617811      -0.14645430       0.16184100
Cd      -2.06665405       5.97766285       6.74556443       0.26067721      -0.06869026      -0.67416936
Cd       2.01270484       6.11239355       6.85197292       0.52669283      -0.47674589      -0.56158329
Cd       6.35848087       5.80112543       6.75325127      -1.70081060       0.95906713       0.07265919
Cd      -4.07604930       9.53230309       6.73405514      -0.76913861       0.53453423      -0.10950829
Cd      -0.09459373       9.56934139       6.90199605       0.99128038       0.49942599      -3.75161647
Cd       4.19210981       9.67128084       6.53164028      -0.09543068      -0.82602107       0.54197520
Cd       2.15679364       1.08600599       3.38185716       0.13955795       1.60779669       0.58374261
Cd       6.10537189       1.21466718       3.50505729       0.68833888      -0.05285157       0.24784027
Cd      10.45826976       1.28735003       3.42357174      -1.07259453      -0.36694298       0.02335620
Cd      -0.10297049       4.83091225       3.36514539       1.11711145      -0.31350182      -0.00251179
Cd       4.09516675       4.76478368       3.40280179      -0.03651895      -0.51391501       0.21414588
Cd       8.27201247       4.81254643       3.39667249      -0.34392510       0.15447985      -0.68746751
Cd      -2.06607520       8.35079845       3.36347556       0.22286508      -0.01573695      -0.11118899
Cd       2.10134895       8.52893984       3.29630011      -0.63694176      -0.91426847       0.89486490
Cd       6.35210506       8.40082677       3.33674804      -1.36002510      -1.16495167       0.55706457
Cd       1.99817544       1.23516512      10.10800342       0.31134883       0.03667323       0.25905850
Cd       6.29473666       1.07297645       9.90139899      -1.90934812      -0.53199679       0.82029405
Cd      10.24663832       1.12383527      10.20997422      -0.00721075      -0.06368190      -1.10509427
Cd       0.03460495       4.63987511      10.27553363       0.17558515       0.78811316      -0.60735002
Cd       4.11130173       4.74366569      10.08796490       0.10159302       0.06427460       0.43422911
Cd       8.38012352       4.87516407      10.14181882      -0.98873337      -0.53442520      -0.88863494
Cd      -2.26107067       8.24551127      10.11069785       0.20525858       0.84022236      -0.43884115
Cd       2.06157357       8.34943058      10.08339287       0.36102302       0.16043213      -0.58591767
Cd       6.15014141       8.40148966      10.16889182      -0.00476541      -0.32313703      -0.68986464
S        0.01661378       2.38633112       2.61667613       0.79190567       0.25726607      -0.38529817
S        4.24446361       2.37985779       2.58979315      -1.21994804       0.09515074      -0.67939127
S        8.20480048       2.41808283       2.76289337       0.48345333      -0.34258686      -1.01807500
S       -2.00618986       5.84239499       2.37012363      -1.06246704       1.15656922       0.85615442
S        2.12811905       5.98544725       2.71185101      -1.01465683       0.55839333      -0.76871186
S        6.06477423       5.83049100       2.50200670       1.38228514       1.15915505      -0.42143931
S       -4.22041680       9.64405447       2.52270780       1.26915527      -1.01578840      -0.72514756
S        0.04506812       9.68153931       2.47491017      -0.57313986      -0.72305737       0.48895657
S        4.11049116       9.54670511       2.53564862       1.08475408       0.63190480       0.60311198
S       -0.00599693       2.43148837       9.31923900      -0.84054917      -0.49841597      -0.39201754
S        3.98399513       2.44326620       9.20160175       0.72229374      -0.59100368       0.27263220
S        8.06108622       2.33086955       9.18600051       2.17506050       1.44393863       0.14920174
S       -2.04367345       5.97286640       9.21419561       0.50874386      -0.36303290       0.16992278
S        2.08311150       5.96440334       9.28849484      -0.49948215      -0.16829259       0.51129899
S        6.11960746       5.97273069       9.19254361       0.64437432       0.08363736       0.93586181
S       -4.25218637       9.63975502       9.24343871       0.52316003      -0.51008263       0.25330495
S        0.02102603       9.45297147       9.05154552      -0.36246861      -0.39971545       4.90377709
S        4.20584303       9.49858708       9.12332111      -0.67047597       0.49470775       0.31715985
S        1.97172762       1.30272469       5.94025702      -0.16212484      -0.77833981      -0.25787151
S        6.22704277       1.15540821       5.98284814      -0.60290466       0.26751698       0.02217444
S       10.22217644       1.25837689       5.97058940       0.73702098       0.34391683      -0.56246115
S        0.15070903       4.73210130       5.81438195      -0.79624060       0.89408283       0.52813165
S        4.15233908       4.75442986       5.87065340      -0.06017466       0.80534747       0.52212693
S        8.20392315       4.74408893       5.84704029       1.76757480       0.04554182      -0.02934525
S       -2.00421694       8.50237690       5.96917481      -0.63871959      -1.35257513      -1.13576321
S        2.08038119       8.40372087       5.99941776      -0.24832601       0.39774679      -0.83581329
S        6.19800951       8.33140607       5.91909398       0.46107220      -0.21450874      -0.34600630
S        2.13998720       1.27987432      12.69569398      -1.12475066      -1.01383236      -0.45187390
S        6.20328204       1.19386034      12.61913496      -0.29585811      -0.44782233      -0.69031577
S       10.30187851       1.21230540      12.61002532      -0.28466387      -0.07386556       1.01267211
S        0.07049393       4.87452266      12.68943625      -0.00320490      -1.20769313       0.05888547
S        4.07099423       4.78614636      12.82692900       0.36633404       0.01774825      -1.10321464
S        8.37655841       4.76094302      12.56102006      -0.35939310       0.55978865       0.40404228
S       -2.03405655       8.29739834      12.57559279      -0.10618258       0.30823771       0.29703747
S        2.13646481       8.32843423      12.53330801      -0.30026523       0.20731055       0.72218116
S        6.17261209       8.45299354      12.60746846       0.51337452      -0.76860340       0.33858751
