72
Lattice="12.39778545 0.0 0.0 -6.19889272 10.73679715 0.0 0.0 0.0 13.44794642" Properties=species:S:1:pos:R:3:forces:R:3 ref_energy_eV=-269.42061311 ref_gap_eV=2.217 energy=-242.58511642 stress="-0.0024564530832030477 0.00236891888242937 -0.0023789906309435523 0.00236891888242937 -0.0009322249997969762 -0.0007086363858143748 -0.0023789906309435523 -0.0007086363858143748 0.0017840111151870331" free_energy=-242.58511642 pbc="T T T"
Cd      -0.05282603       2.29918279       0.00538200       0.32462211       0.86183397       0.54117076
Cd       4.24731107       2.39048153      13.36091844       0.20284603       0.09535976       0.23582571
Cd       8.29140298       2.46886445      13.39426276      -0.50443213      -0.44020372       0.43374270
Cd      -2.15424205       6.01099503      13.36924164       0.13903992       0.39762871      -0.08303515
Cd       1.98043570       5.84581359       0.20081173      -0.14829766       0.45074856      -0.21800839
Cd       6.21391537       6.07920482       0.03996165       0.09832944      -0.05510489      -0.27275744
Cd      -4.23635787       9.77966408       0.10981539      -0.04657319      -0.40161642      -0.36206700
Cd       0.06715118       9.33401710      13.42090623       0.00453656       0.17875630       0.06594022
Cd       4.15759432       9.54033003      13.40670856       0.19038788       0.49635698       0.32627726
Cd      -0.03397731       2.24774945       6.60713584       0.29983522       0.04077551      -0.09779361
Cd       4.16642042       2.40837687       6.73816927      -0.01141338      -0.48411483       0.39351388
Cd       8.31111019       2.17035432       6.62919195       0.75702784       0.63298414       0.67514752
Cd      -1.83241643       6.03155460       6.78202221      -0.73559983       0.33136847       0.09626882
Cd       2.18809588       5.71104359       6.65722917      -0.27642841       0.13527811       0.40719907
Cd       6.32220476       5.97627942       6.79625014       0.24451599      -0.18192086      -0.79772606
Cd      -4.16388048       9.59928900       6.79870372       0.68843082       0.11653416       0.14305351
Cd       0.03264908       9.62709527       6.76308347      -0.24499938       0.00413944       0.22546399
Cd       4.12246408       9.19411857       6.70605974      -0.25986092       0.07479764      -0.26077436
Cd       1.76709045       1.21995419       3.26230411       0.44691672       0.37199366       0.41170579
Cd       6.11339654       1.16103462       3.21108330      -0.48357512      -0.14974777       0.37220908
Cd       9.97022387       1.03555968       3.43390273       0.21857901       0.47785679      -0.21388961
Cd      -0.19813353       4.73491648       3.37555975      -0.16954216       0.06270124      -0.61717786
Cd       4.23505580       4.68688800       3.27456473      -0.00944517      -0.10850934       0.19389657
Cd       8.04656903       4.90165819       3.53355806       0.52142838      -0.20243115      -0.31709893
Cd      -2.05342784       8.24479963       3.38269362       0.42099075      -0.02646553      -0.34119866
Cd       1.97934259       8.14955490       3.48420759       0.44547081       0.15922104      -0.46790538
Cd       6.30803793       8.54292237       3.25403725      -0.20331854       0.16130000       0.46118326
Cd       2.08886772       1.51874734      10.11239888       0.91006472       0.01294808       0.30208405
Cd       6.31055654       1.14700098      10.14592542       0.71207705       0.45551227       0.02121916
Cd      10.61345662       1.09219876      10.06277502      -0.39886172       0.52607256      -0.04370671
Cd      -0.07523112       5.08384468      10.09320893       0.64525122      -0.87331078       0.57796467
Cd       4.13847674       4.81194839      10.20655387       0.59103372      -0.37975183       0.28223745
Cd       8.25628266       4.77755950       9.91847640       0.42940747      -0.52626964       0.43563658
Cd      -2.15339850       8.56959054      10.22110616       0.27165414       0.30546316      -0.18602221
Cd       2.09065468       8.28919264       9.99599991       0.10605511       0.01570078       0.61126457
Cd       6.33962222       8.47735501       9.94051745      -0.02477991      -0.19864971       0.07202904
S       -0.27447916       2.33592185       2.56754917      -0.33428466       0.05075934      -0.08138391
S        3.94527325       2.31953965       2.46167013       0.50030890       0.04973088       0.10609050
S        8.06351327       2.50011207       2.59107971       0.53564238       0.00215510      -0.43134890
S       -2.25039741       5.94451450       2.39054918       0.24223163      -0.05606516       0.91237497
S        2.04419541       5.76395582       2.69496174      -0.24750995       0.24495040      -0.10217782
S        6.16982283       6.16801349       2.56367831      -0.29297477      -0.43226615      -0.12972776
S       -3.97407535       9.64381450       2.59165986      -0.34235401      -0.25898344      -0.34432921
S        0.08828234       9.46079763       2.55000727      -0.42749137       0.01069919      -0.18801863
S        4.10231768       9.49484874       2.53447300      -0.29322445      -0.35499569      -0.06296159
S        0.15902590       2.54795964       9.14635610      -1.06229136       0.45513567       0.02380994
S        4.43625432       2.40899370       9.32766011      -1.34502167       0.62006668      -0.33412241
S        8.38664921       2.29232573       9.22483428       0.41415154       0.33259542       0.10717496
S       -2.05221057       6.22353390       9.38408083      -0.69700400      -0.24582371      -0.77594012
S        2.17053411       5.90607418       9.30723886      -0.52745944       0.06867868      -0.68281181
S        6.23696422       5.98761329       9.22444322      -0.27611508       0.43422577       0.61549948
S       -4.06745274       9.90474830       9.30085848      -0.11205520      -0.76026560      -0.17807662
S        0.08898542       9.60204428       9.41253319      -0.46937083      -0.91435348      -0.91692060
S        4.13715000       9.46948091       9.19203515       0.31996992       0.17803739       0.17407877
S        2.19222416       1.12457450       5.80215360      -0.43559181       0.67765366       0.11051306
S        6.25586923       1.26985796       5.89982644      -0.89736715      -0.84458898      -0.69353884
S       10.33609721       0.88672652       5.91764712       0.14868659       0.29037582      -0.01166157
S        0.01386011       4.75104498       5.81960473       0.19421200      -0.63731566       0.58684670
S        4.26684862       4.69120473       5.88758007       0.39984640       0.52333722      -0.39362231
S        8.44068292       4.64232814       5.94087791      -0.08065626       0.52715925       0.57413027
S       -2.06046935       8.43459625       5.83378290       0.10399677      -0.26862313       0.83700544
S        1.88823858       8.10570818       5.94423465       0.62937908       0.46010794       0.46174217
S        6.35848397       8.39905283       5.88422171      -0.70563289      -0.82464607      -0.34908386
S        2.06899135       1.37951362      12.66925747       0.08771836      -0.25981379      -0.40432933
S        6.23080097       1.04711870      12.59041512       0.23281436       0.35004238       0.83486215
S       10.34712312       1.28907608      12.66265157      -0.49601040      -0.96464530      -0.75742867
S       -0.10654099       4.79276109      12.73322303       0.41691737      -0.10837215      -0.61524588
S        4.08165887       4.85485231      12.78008590       0.55725752      -0.24119344      -0.45558130
S        8.26879320       4.78509426      12.63645739      -0.77969739       0.27635003      -0.81818241
S       -2.22146885       8.46376469      12.68517675       0.32549945      -0.09533058       0.28315885
S        2.23304653       8.29532431      12.63655691      -0.94665424      -0.62115598      -0.32618854
S        6.19098300       8.43727766      12.47905173       0.50876131      -0.00085735       0.41952253
