72
Lattice="12.39778545 0.0 0.0 -6.19889272 10.73679715 0.0 0.0 0.0 13.44794642" Properties=species:S:1:pos:R:3:forces:R:3 ref_energy_eV=-267.7770934 ref_gap_eV=2.2105 energy=-241.09284362 stress="-0.008900840927811897 0.0018492043271238327 0.0005858259182007907 0.0018492043271238327 -0.006766815467939202 -0.00035248281785438474 0.0005858259182007907 -0.00035248281785438474 -0.001432454456147311" free_energy=-241.09284362 pbc="T T T"
Cd      -0.11595605       2.34037236      13.40386714       0.88538689       0.31354513       0.21075603
Cd       4.13033239       2.38587910      13.44207397       0.12606121      -0.10444512       0.10431798
Cd       8.30667011       2.39310969      13.33020440      -0.28681045      -0.06225191       0.64300391
Cd      -1.96278193       5.89114875       0.03565360      -0.37604693       0.20484008       0.07404780
Cd       2.06610217       5.96564483       0.00172107       0.49481158       0.20756008       0.11863566
Cd       6.18227430       5.91742008       0.03023569      -0.16688800      -0.01663039       0.32548255
Cd      -4.24529190       9.60100882      13.28765618       0.77553525      -0.70096942       0.54596962
Cd       0.00867622       9.53046925      13.43429837      -0.15541833       0.19501872       0.13944020
Cd       4.17539667       9.52692234       0.03650257      -0.45613200       0.01518843      -0.25328263
Cd       0.03224912       2.38525228       6.77037723       0.45462390      -0.49603784       0.27983186
Cd       4.26386057       2.20097180       6.77551704      -0.06977453       0.94068773       1.26306920
Cd       8.35285639       2.38739159       6.58267860      -0.58757655       0.20895400       0.47221909
Cd      -2.06910869       5.97480665       6.69766257      -1.03618569       0.54404295       0.04035871
Cd       2.12446090       5.94566086       6.71914163      -0.00659311      -1.73446229       0.11249415
Cd       6.07520579       6.03049616       6.64022370       0.11388824      -0.03321706      -0.22280237
Cd      -4.25011563       9.47575012       6.78672859       0.16974719       0.72657489      -0.11303808
Cd       0.03471604       9.33744139       6.65427923      -0.71457356       0.94095866       0.30467634
Cd       4.13213261       9.54434902       6.72105285      -1.06710570       0.34370327       0.01596168
Cd       2.03063780       1.16832791       3.24853045       0.40461654       0.31795012       0.71306573
Cd       6.21285995       1.20640392       3.39160907      -0.12178351      -0.20349471      -0.57985123
Cd      10.34158149       1.18787028       3.36648965      -0.17793359       0.07997763      -0.32940290
Cd       0.06354231       4.78556002       3.34047406      -0.39224507       0.23145067       0.19436711
Cd       3.99907226       4.77798414       3.26165699       0.86337700      -0.89224276       0.97836582
Cd       8.35274983       4.74340467       3.31027078      -0.39198787      -0.01464718       0.17592412
Cd      -2.10130890       8.42715092       3.52920133       0.16638112      -0.47402411      -1.53455834
Cd       2.10558323       8.24907781       3.33611706      -0.56510942       1.98058834       0.62731577
Cd       6.20985119       8.29739115       3.38149110       0.39721433       0.06878168      -0.71891395
Cd       2.00618144       1.16926480      10.14879319       0.20150527      -0.09496663      -0.23411366
Cd       6.14739276       1.21590287      10.01358149       0.53580922      -0.23916119       0.51106947
Cd      10.31277102       1.23305501      10.21026954      -0.23327849      -0.29899442      -0.54194764
Cd      -0.06025509       4.76442861      10.01303106       0.23457966      -0.17081623       0.42984792
Cd       4.04437650       4.84195527      10.01713000       0.90873139      -0.27953729       0.35164238
Cd       8.14009018       4.72658602      10.06466540       1.22655316      -0.33143452       0.59297812
Cd      -1.84152458       8.30164592      10.02917438      -1.32380698      -0.26794367       0.35006697
Cd       2.06270629       8.34722964      10.09124728       0.09722378      -0.12630039      -0.00712958
Cd       6.21808419       8.40852473       9.87266947      -1.09097471      -0.74624235       0.69347850
S        0.00604826       2.37971918       2.51096707      -0.15805018       0.33000817      -0.01393392
S        4.14058176       2.39771642       2.52622054      -0.14562367      -0.04636509      -0.02753849
S        8.26011196       2.39870334       2.53308625       0.23121307      -0.37630065      -0.37685355
S       -2.15048942       6.11752112       2.62821810       0.94300583      -0.71212957      -0.60366901
S        2.18585659       6.08618170       2.55113003      -1.40103210      -1.31860316      -0.73347437
S        6.13844280       5.81868793       2.63677637       0.46538149       0.80349268      -0.40612951
S       -3.90420310       9.61589893       2.51101010      -1.84963989      -0.40971224      -0.82004086
S       -0.17896600       9.49715490       2.55251611       1.69146668       0.40142557      -0.25618012
S        4.13217725       9.54570057       2.49865816       0.05540901      -0.04514224       0.57829719
S       -0.05473380       2.31055542       9.43544486       0.29227619       0.56910839      -0.93623602
S        4.09576718       2.36276202       9.48329023      -0.22753748       0.32162650      -0.93466668
S        8.30472564       2.35854514       9.35257807      -0.37588945      -0.04329162      -0.91051254
S       -2.06200469       5.96669661       9.25797029      -0.51156556      -0.24582493      -0.26363787
S        2.04361172       5.92124496       9.22429004      -0.39803915       0.48381032       0.13781015
S        6.35338724       5.88809778       9.12230001      -1.81494738       1.10183031       0.14208034
S       -4.21896341       9.55402234       9.26386211       1.35940656       0.13714307       0.04111679
S       -0.00338193       9.51582672       9.24940812       0.87581355       0.79908783      -0.76561599
S        4.02894386       9.66211408       9.17685685       0.31410508      -0.57427738       0.55849798
S        2.28359881       1.22165490       6.00603321      -2.16864325      -0.63020360      -0.74062617
S        6.15447617       1.18299384       5.83738924       1.61525565      -0.96483529       0.46837476
S       10.36987156       1.18346572       5.84424863       0.17030134      -0.10420683       0.31263966
S       -0.16158096       4.72038863       5.98988774       1.23863767       0.08860779      -0.78482734
S        4.17005725       4.57562568       5.98865671      -0.56989904       0.72451462      -0.55221956
S        8.12876517       4.80873562       5.82365794       0.63300538       0.03280609       0.37299404
S       -2.18918415       8.52544652       5.78729711       0.27010785      -0.85132666       2.69569327
S        1.99290750       8.15124766       5.98823942       0.91075531       1.38769109      -1.13687798
S        6.07425742       8.49213249       5.85918298       0.68958593      -0.93972297      -0.15129153
S        2.07715733       1.18411905      12.61342671      -0.27562763       0.44839316       0.36331112
S        6.22737403       1.24546546      12.64793548      -0.17180767      -0.56956234      -0.28356245
S       10.32985616       1.18384548      12.61658052      -0.24705473      -0.56846417       0.56096129
S        0.13124972       4.75402627      12.67718746      -0.82548452      -0.41639064      -0.50979222
S        4.09129697       4.74337354      12.62892614       0.23702529       0.28682207      -0.30458809
S        8.21615853       4.73727364      12.62777876       0.55990648       0.55388047      -0.09649214
S       -1.95972030       8.25147319      12.50473651      -0.65170774       0.27980163       0.54078623
S        2.07745687       8.31565970      12.61737059       0.16748558       0.33143946      -0.00521797
S        6.14292026       8.31755850      12.68997296       0.23658427      -0.29713275      -0.89192475
