72
Lattice="12.39778545 0.0 0.0 -6.19889272 10.73679715 0.0 0.0 0.0 13.44794642" Properties=species:S:1:pos:R:3:forces:R:3 ref_energy_eV=-269.04096152 ref_gap_eV=2.1754 energy=-242.16944015 stress="0.0015385652730153733 -0.0006304350886705936 0.0004819408297285273 -0.0006304350886705936 -0.000580325532110024 0.0018275425517930515 0.0004819408297285273 0.0018275425517930515 0.00031376862168228694" free_energy=-242.16944015 pbc="T T T"
Cd      -0.11391172       2.27918668      13.34559894       0.35133042      -0.00823379      -0.14177415
Cd       4.16697975       2.46797802       0.05375965       0.52126831      -0.59773387       0.29409347
Cd       8.19583242       2.33136580      13.21682342      -0.16563241      -1.08165585       0.18993739
Cd      -2.12544404       5.74905379       0.16193103       0.04329687       0.45220631      -0.62584929
Cd       2.20675585       5.79566663      13.37367341      -1.27761494       0.63381329       0.13321067
Cd       6.15662521       5.90651633      13.30191504       0.75630710       0.52981242       0.41604349
Cd      -4.12046616       9.48263842      13.36223513       0.70104286      -0.13823987      -0.28020919
Cd      -0.17234421       9.40825228       0.22084231       0.01803146      -0.43353827       0.14160808
Cd       4.02798948       9.53706733       0.03856252      -0.12721818      -0.27618967       0.39820387
Cd       0.00326601       2.71558928       6.57041514       0.08487508      -0.98040889       0.44634289
Cd       4.07340597       2.31566860       6.82007681      -0.30650141       0.13585979      -0.02429119
Cd       8.13534282       2.35777370       6.73735015      -0.08934847       0.28609668      -0.18161767
Cd      -2.18227821       5.97614263       6.44636389      -0.07389093       0.05143047       0.54486297
Cd       2.03737923       5.84485522       6.99027469       0.18582991       0.17500310      -0.52535345
Cd       6.02819022       5.96317956       6.85579899      -0.04778382       0.22046877      -0.28637072
Cd      -4.50306437       9.59966511       6.99723172       0.32786538      -0.13934618      -0.11059229
Cd       0.09657131       9.42948000       6.71415648      -0.31788161      -0.45573849      -0.20685951
Cd       4.05867883       9.71642638       6.55677852      -0.22070025      -0.45161006       0.23493075
Cd       1.95735704       1.30745758       3.43955772       0.68504869      -0.31881342      -0.01665336
Cd       6.35891751       1.21974632       3.47640953       0.38498128       0.57065338       0.06023877
Cd      10.54724532       1.35733806       3.29654029      -0.84653446      -0.42801969       0.33333085
Cd       0.05350413       4.94874570       3.08820699       0.13485140       0.04198749       0.24029142
Cd       4.18547700       4.75032067       3.25960497       0.57402927      -0.72574728       0.40824929
Cd       8.37986633       4.73477197       3.28946264      -0.35340919      -0.50278228      -0.06494550
Cd      -2.11467991       8.53863001       3.60145553      -0.40603139      -0.21694239       0.26275450
Cd       2.25595770       8.39903136       3.22052214      -0.81545669      -0.12301990       0.41740136
Cd       6.63598205       8.17150134       3.30131660      -0.80104782       0.31543291       0.04349775
Cd       2.27623124       1.34887832      10.37134662      -0.71871807       0.30694704      -0.68515911
Cd       6.21844100       1.09208935      10.01084712      -0.13805323       0.00447389       0.35712207
Cd      10.43720983       1.07116365       9.89510965       0.31523371       0.56925441       0.11063138
Cd       0.04096241       4.76446469      10.15947597      -0.37162002      -0.34128992      -0.75773069
Cd       4.35813872       4.90542724      10.20047405       0.42451690      -0.15418120      -1.37091846
Cd       8.41776933       4.65613846      10.06574271      -0.11002805       0.21185901       0.17103086
Cd      -2.25880664       8.32888862      10.04609271      -0.01802857      -0.16621604      -0.14182477
Cd       1.86209636       8.37848768      10.10998592       0.42831134      -0.24294281       0.57350841
Cd       6.08565346       8.53815684      10.25401221      -0.15970094      -0.19694270      -0.52882919
S        0.06615979       2.52460689       2.40923537       0.31479937       0.23839766      -0.11021793
S        4.27392534       2.24243667       2.57858603      -0.66345714       0.70212430      -0.01133753
S        8.39901867       2.34010716       2.31635431      -0.25767444       0.13512447       0.67402641
S       -2.09307615       6.11614553       2.55200899       0.25104772       0.26780905       0.59048241
S        2.27240956       5.95000336       2.43967722      -0.85216098       0.51219566      -0.19595650
S        6.27631721       5.87582852       2.41063235       0.03353435       0.07864136      -0.02542481
S       -4.04535753       9.66078315       2.37203956       0.03962800       0.15330609       0.77623422
S       -0.10583654       9.64020855       2.79143314       1.05611597      -0.95991983      -0.79323841
S        4.24172817       9.63858890       2.66302609       0.73825186      -0.08792342      -0.66206549
S        0.11441278       2.30029619       9.10522058      -0.01741593       0.59314450       0.49182375
S        4.14840818       2.48427400       9.36049891       0.79698615       0.21269768      -0.36445672
S        8.32631899       2.30769073       9.28303188      -0.37848501      -0.09590614      -0.19446448
S       -2.08675979       5.92713055       9.13891710       0.58602484       0.12673701      -0.19111645
S        2.21429693       5.93596457       9.50533276      -0.59192197       0.07233929      -0.58874827
S        6.42486964       6.10648488       9.35929344      -0.45336619      -0.04890827      -0.13111868
S       -4.29322819       9.81600717       9.50138404       0.33688382      -0.91184867      -0.47266030
S       -0.10363811       9.42823550       9.19658015      -0.49925517       0.38899900       0.18025032
S        3.95356254       9.48511272       9.26444467       0.34515923      -0.45858236      -0.70762203
S        1.97970411       1.13510010       5.96219963      -0.13183929       0.51865019      -0.25002215
S        6.04026120       1.03436070       6.01524734       0.71224970       0.67921131      -0.29752824
S       10.31103577       1.36995873       5.87703593      -0.04330766       0.07249887      -0.19197117
S       -0.02751118       4.93174742       5.65910215       0.22286014       0.56342747       0.17067943
S        4.07219310       4.65211957       5.81851841      -0.07758266       0.31594073       0.54618502
S        8.06808614       4.84569929       5.79259668       0.15666786      -0.58407238       0.24937385
S       -2.28177373       8.46456555       6.13875193       0.13756246      -0.00376018      -0.34989669
S        2.06352950       8.20929401       5.84043789       0.26005916       0.03667972       0.07566429
S        6.07918287       8.38743358       5.78127970       0.05890389      -0.40777494       0.36415526
S        2.17791104       1.19070608      12.75095240      -0.66482412       0.11515856       0.57311518
S        6.08135899       0.90358737      12.65310716       0.28561985       1.15312691      -0.50881768
S       10.33074787       1.06473199      12.45235864      -0.26970594       0.23821747       0.09083303
S       -0.10023597       4.69985601      12.60721403       0.68074049      -0.05721668       0.49686310
S        4.17335339       4.75776246      12.54656661       0.23829342      -0.69188697       0.75418191
S        8.27666784       4.65977898      12.63769649      -0.37349189       0.55170657      -0.55132949
S       -2.07673010       8.10069034      12.55389520      -0.23618701       0.36856649       0.36569419
S        1.92676240       8.24045660      12.70395869       0.27757740       0.17224066       0.00703867
S        6.19783104       8.39499465      12.68568441      -0.58990981      -0.48484760       0.36308025
