72
Lattice="12.39778545 0.0 0.0 -6.19889272 10.73679715 0.0 0.0 0.0 13.44794642" Properties=species:S:1:pos:R:3:forces:R:3 ref_energy_eV=-269.54922462 ref_gap_eV=2.2246 energy=-242.68518307 stress="-0.0015353235767300993 -0.0012130487268186207 -0.00015966056218712736 -0.0012130487268186207 -0.003286304232407883 -0.00036333153439059346 -0.00015966056218712736 -0.00036333153439059346 0.0027147392512994035" free_energy=-242.68518307 pbc="T T T"
Cd      -0.09886558       2.52156591       0.04123463       0.00020402      -0.90907740       0.14444108
Cd       3.89521167       2.47701378       0.19200225      -0.05388175      -0.07081653      -0.05481574
Cd       8.16523004       2.53576103       0.07620817       0.35562300      -0.16924689      -0.00935974
Cd      -2.01641227       6.00631722      13.41974500       0.10970379       0.29051462      -0.47561366
Cd       1.98274268       6.08920776      13.42708906      -0.51518981       0.42039279       0.18486029
Cd       6.13794565       6.08249576       0.08667201       0.22626030       0.39838123      -1.00249623
Cd      -4.07902409       9.42792542       0.00432782       0.45135115       0.54329275       0.74970342
Cd       0.03004269       9.71325076      13.27550515       0.19729674       0.06265675       0.07415604
Cd       4.18907775       9.69767027      13.34675062      -0.04468104      -1.59251462       0.49028950
Cd      -0.09468846       2.45537280       6.59424087      -0.07364977      -0.37465743       0.32263454
Cd       4.07541541       2.40267725       6.81845351      -0.35581356       0.34989865       0.05653164
Cd       7.99570972       2.60704058       6.67593311       0.40969544      -0.63885378      -0.27290874
Cd      -2.12338495       5.93534377       6.67975556       0.03226851       0.22647674       0.38598076
Cd       2.00051311       5.84545509       6.70118176      -0.28175992       0.20258893       0.07756954
Cd       6.17720578       5.99691737       6.92106228      -0.14053003      -0.08504493      -1.13406607
Cd      -4.07121596       9.62425034       6.79106703       0.30053317       0.00658256      -0.02094539
Cd      -0.06435399       9.61367459       6.73691511       0.43146239       0.36407780       0.20860123
Cd       4.10851211       9.73114524       6.71615242       0.28784438      -0.59439695       0.27895997
Cd       2.32265747       0.97682962       3.39457353      -0.71726095       0.29188459       0.36901793
Cd       6.25420792       0.81834150       3.28207676      -0.05751483       0.60327160       0.09654030
Cd      10.45390989       1.31299433       3.16093295      -0.34741757      -0.15955048       0.52442572
Cd       0.10228471       4.75418828       3.25465155       0.15713096       0.38984312      -0.11599479
Cd       4.20618713       4.67595740       3.36389299       0.22752556       0.63533041       0.37440935
Cd       8.35454608       4.77178858       3.25051927      -0.19803919      -0.02983156      -0.26968153
Cd      -1.85916515       8.32816109       3.30887260      -1.15828039      -0.17541629       0.48574473
Cd       2.26091589       8.38832795       3.61188979      -0.24401223      -0.28912920      -0.06192697
Cd       6.16392447       8.35863835       3.52222736      -0.16531034       0.00753055      -0.17942978
Cd       2.05957008       1.27032072      10.18170691       0.09591629      -0.29068969       0.48953718
Cd       6.19248474       1.20702848      10.14566170      -0.17005720       0.05181816       0.42607209
Cd      10.29416102       0.94676272      10.06895126       0.34423410       0.90961569       0.38262086
Cd      -0.11285053       4.62436806      10.03446682       0.52846793      -0.31035900      -0.38009902
Cd       4.11456049       4.78246997      10.28099269       0.08799583       0.01405467      -0.08393184
Cd       8.33908455       4.47478515      10.11162697      -0.01746375       0.50765463       0.15307124
Cd      -2.11685541       8.25126769       9.93747633       0.27670796       0.89117178       0.80990951
Cd       2.03831631       8.21025678       9.86693513      -0.56255599       0.34035190       0.42986276
Cd       6.28544750       8.30236454       9.95875260      -0.05062965      -0.16716396       0.30655447
S        0.19859622       2.35911430       2.56554879       0.06776858       0.03532908      -0.17764383
S        4.20661894       2.33094513       2.72269853       0.52768399      -0.27506911      -0.62303909
S        8.19548640       2.34016203       2.58869768       0.25571204      -0.01130890      -0.04658300
S       -2.02494226       5.99097637       2.42972399       0.36460782      -0.43589067       0.42530914
S        2.27154953       6.03979412       2.53169237      -0.67367734      -0.10549503       0.16171140
S        6.28111131       6.01276928       2.47096804      -0.27638333      -0.09090241       1.13098501
S       -4.12811510       9.43040691       2.63805985       0.38790035      -0.37733782      -0.44574161
S        0.12944373       9.25962162       2.42817331       0.79352621       0.61063968      -0.39228528
S        4.10602678       9.61713216       2.50936192       0.56654586      -0.18826573      -0.03382101
S       -0.00250485       2.17588774       9.19019587      -0.55072767       0.63265213      -0.04656777
S        4.12023731       2.39241040       9.36044701       0.10406412       0.29311754      -0.08889970
S        8.28678598       2.18002410       9.16932237      -0.06985850       0.33505819      -0.04396787
S       -2.06410376       5.96913322       9.35662900      -0.42217764      -1.20365809      -0.99946921
S        2.04841425       5.84917957       9.21662942      -0.18984105      -0.42686094       0.26497584
S        6.29075121       5.84663560       9.28589441      -0.12919624      -0.13018139       1.18054522
S       -4.08260767       9.58532043       9.35507159      -0.15209480       0.22366121      -0.50006685
S       -0.09958236       9.60966493       9.28071897       0.46440597      -0.39373113      -0.05218913
S        4.12032955       9.42111894       9.34168739       0.27807746      -0.57029851      -0.88272698
S        2.00756949       1.26800726       5.92902395       0.19192414      -0.28845327      -0.09902609
S        6.00596546       1.26876818       5.79937781       0.70471913      -0.42718725       0.11921986
S       10.23548719       1.26160480       5.83105458      -0.36450328       0.43389390      -0.25792001
S       -0.08803717       4.78644957       5.79154680       0.15475810       0.19696847       0.05480527
S        4.08335414       4.83266063       5.98093907       0.71390525      -0.35845571      -0.47073339
S        8.21909699       4.87957840       5.72356918      -0.23421379       0.09374762       0.70268200
S       -1.95128360       8.34317446       5.87548808      -0.83020806      -0.08783948      -0.06740904
S        2.05479973       8.31413626       6.12542919       0.09865538       0.35181650      -0.33309928
S        6.31049338       8.35340126       6.04226319      -0.69445501       0.24207047      -0.09733149
S        1.93749585       1.13088655      12.78016954       0.21963941       0.46974210      -0.37132657
S        6.05874171       1.47994358      12.74918063       0.02926556      -0.65039009      -0.49126815
S       10.23626435       1.16855897      12.62849782      -0.12572900       1.82218986      -0.34600442
S       -0.00841171       4.71754757      12.50631610       0.07366806       0.80882148       0.38823074
S        4.01651260       4.90562426      12.84268407       0.64721274      -0.54317504      -0.72382242
S        8.28476403       4.87383453      12.63795294      -0.31221951      -0.03584211      -0.20593673
S       -2.01156319       8.45635286      12.60050404       0.23388399      -0.56335130      -0.34964077
S        2.06763949       8.42708672      12.47387011       0.06016032       0.07696965       0.08225432
S        6.32735381       8.54013445      12.53109125      -1.27897279      -1.11362511      -0.12442375
