72
Lattice="12.39778545 0.0 0.0 -6.19889272 10.73679715 0.0 0.0 0.0 13.44794642" Properties=species:S:1:pos:R:3:forces:R:3 ref_energy_eV=-266.64440576 ref_gap_eV=2.1152 energy=-239.97051806 stress="-0.009720472348562683 -0.004322035741941092 0.0015606433195557961 -0.004322035741941092 -0.006413409468470008 0.002424417663803174 0.0015606433195557961 0.002424417663803174 -0.007378036476463857" free_energy=-239.97051806 pbc="T T T"
Cd      -0.14425449       2.36615893       0.14632132       0.55427424      -0.03961324      -1.43258673
Cd       4.16370766       2.34798540       0.05730600      -1.73661571       1.17044386      -1.14399786
Cd       8.30470921       2.59394115       0.08147963      -0.02445316      -1.36220312      -1.62924951
Cd      -2.00871635       6.03536498      13.26483932      -0.12505936      -2.07344866       0.52456041
Cd       1.84459391       6.06725831       0.01516915       1.06189212      -0.36907784       0.10787874
Cd       6.18487815       5.95944702       0.04007690      -0.09014068       0.35717378       0.40270945
Cd      -4.17470722       9.46010017       0.02398105       0.35882217       0.71566200      -0.60206088
Cd      -0.00892714       9.54409510      13.42723537      -0.00923674      -0.04932717      -0.04220425
Cd       4.25891243       9.40520260       0.07384819      -0.94924399       0.78524828      -0.26616648
Cd      -0.03443565       2.40096140       6.71975096      -0.31656048       0.22842698       0.63162709
Cd       3.97349848       2.21681588       6.79043296       0.76445795       0.95602589      -0.01896913
Cd       8.28520929       2.31657286       6.74493278      -0.50004276       0.31026122      -0.09634028
Cd      -2.00904148       5.92766900       6.71642905      -0.52441505      -0.44445406       0.48112882
Cd       2.04497287       6.16562627       6.76600127       0.06819627      -1.50204047       0.40122048
Cd       6.22722148       6.00695445       6.71577480      -0.09787447      -0.68910354      -0.00971375
Cd      -4.20791704       9.55194445       6.50123958       0.72025321      -0.33517061       0.64526195
Cd       0.00774379       9.49230788       6.69191035       0.87609065       0.67749546       0.23308237
Cd       4.14343939       9.54299383       6.75044657       0.80755036       0.25672793       0.57629415
Cd       2.16710308       1.21564347       3.36774663      -0.06797653       0.33091317      -0.43515098
Cd       6.15143276       1.25961892       3.32897028       0.39477268      -0.15498788       0.33246832
Cd      10.37247386       1.20310633       3.37665280      -0.27876396       0.08070754      -0.15207214
Cd      -0.08175279       4.84609452       3.30938792       0.70923100      -0.24175615       0.50152220
Cd       4.11724523       4.76968202       3.37927098       0.04947937       0.26071385      -0.37356062
Cd       8.21697033       4.77570987       3.22172264       0.16813113      -0.33059233       0.58595690
Cd      -1.99472018       8.36037771       3.36045260      -0.89520756      -0.52676435       0.07835557
Cd       2.07119090       8.36364760       3.37992643      -0.08545659      -0.14395620      -0.13130956
Cd       6.10836069       8.32712477       3.36771019       0.47945240       0.38881791      -0.74512186
Cd       2.22514920       1.06066865      10.09578435      -0.86614278       0.46383606       0.35734308
Cd       6.21846970       1.26854442      10.04853149      -0.79886692      -0.51335205       0.38799661
Cd      10.31885697       1.20510520      10.07376038      -0.01821281      -0.25972994       0.26732492
Cd       0.13476994       4.86434879      10.11998904      -2.66021623      -1.82230868      -0.80858086
Cd       4.25891094       4.94514265      10.01847587      -1.97612727      -1.08137277       1.14101182
Cd       8.33758610       4.63158587       9.92444662      -1.53490137       0.39684353       1.13105375
Cd      -2.23958394       8.40765752      10.04264559       1.32970285      -0.82796136       0.02990213
Cd       2.05626062       8.40639122      10.06346328       0.69742883      -0.61732102       0.31840680
Cd       6.28087321       8.33155123      10.17588865      -0.61137588      -0.41851690      -0.18631366
S       -0.03641949       2.45839585       2.50643565       0.54576529      -0.29173950       1.14314146
S        4.25646938       2.50343038       2.38305316      -0.82173016      -0.28183345       1.74162701
S        8.26566102       2.35286398       2.36093183       0.04576943      -0.24636451       2.39595712
S       -2.06479792       5.87037573       2.46827589      -0.58964207       0.98635689      -0.52898861
S        2.06336164       5.96199626       2.53456929      -0.21803568       0.20752644      -0.05763578
S        6.19419471       6.02587945       2.59661422      -0.14744604      -0.40642527      -0.48786131
S       -4.19846913       9.61159477       2.44918949       0.37237963      -0.35329672       1.03001542
S       -0.04786251       9.55448617       2.60669560       0.69448752       0.25832426      -0.54010523
S        4.14240455       9.53986749       2.54202900      -0.35993168       0.28797401       0.13059008
S        0.00153007       2.17795189       9.27971065       0.46274231       0.94113681      -0.39101955
S        3.98367961       2.45618214       9.26337892       1.14529089       0.26823761      -0.09360792
S        8.24116449       2.38261715       9.26061954       0.10105958      -1.12092357      -0.36381080
S       -2.21148498       5.84346191       9.34136867       1.96320992       1.33047468      -0.73094078
S        1.93436590       5.92311874       9.39460775       2.82900186       1.52816157      -1.77993644
S        6.15324848       5.93484848       9.27014620       1.92303770       0.97599701      -0.87343086
S       -4.19448541       9.51159900       9.34615493      -0.14339201       0.16773041      -1.64939531
S        0.10611060       9.41845686       9.20965801      -1.55153188       0.99149164       0.02335800
S        4.18866596       9.48394520       9.37687206      -0.04184933       0.11774268      -0.73475849
S        1.97539854       1.21211676       5.90022396      -0.06808697      -0.36743140      -0.63652329
S        6.13203469       1.21115023       5.93340744       0.12655031      -0.20771708      -0.30271665
S       10.29266473       1.19946827       5.90108772       0.36155394      -0.36068395      -0.19939016
S       -0.00098748       4.77125764       5.88599106       0.54441586       0.04751543      -0.08972069
S        4.12486937       4.81733171       5.78999612      -0.22282152      -0.27355731       1.29203255
S        8.27580824       4.70033283       5.90227168       0.03285529       0.26038329      -0.32248427
S       -1.87727682       8.26089269       5.95247757      -1.56923518       0.23672240      -0.64088804
S        2.21740449       8.37086649       5.91444503      -0.81068257       0.62437007      -0.52932022
S        6.25079166       8.28120822       5.74703813      -0.41108519       0.43693997       1.19493359
S        2.05633252       1.21669514      12.55753045      -0.28556740      -0.22563865       0.85451881
S        5.95797505       1.20445637      12.67891444       2.39052579      -1.02907541      -1.22270567
S       10.32042207       1.17721358      12.60582875      -0.51990903      -0.23357105       0.24011738
S        0.12346645       4.71666404      12.43656429      -1.10712181      -0.46686971       2.02118968
S        4.22044613       4.86725588      12.63802367      -1.27477569      -0.47799639      -0.28193621
S        8.07172619       4.72381528      12.59942175       1.20825943       1.03377654      -0.94669502
S       -2.12986031       8.21988919      12.56448936       0.24375612       1.89713030      -0.21426300
S        2.10944551       8.33149347      12.57371385      -0.20453275       0.67507695       0.40871181
S        6.19417388       8.34688080      12.62641433       0.48387119      -0.50618412       0.08023435
