72
Lattice="12.39778545 0.0 0.0 -6.19889272 10.73679715 0.0 0.0 0.0 13.44794642" Properties=species:S:1:pos:R:3:forces:R:3 ref_energy_eV=-269.82282249 ref_gap_eV=2.2016 energy=-242.9053733 stress="-0.00041355069185141367 0.0019745256789606503 -0.0022928149320801776 0.0019745256789606503 0.0019529683989756544 0.0008743533402082209 -0.0022928149320801776 0.0008743533402082209 -0.002024244329804666" free_energy=-242.9053733 pbc="T T T"
Cd       0.11573779       2.44537963       0.00817622       0.01903396       0.37030796      -0.02828897
Cd       4.20949454       2.48709542      13.37931940       0.16418982       0.13024687      -0.06239875
Cd       8.39181754       2.38455901      13.37215608      -0.44139480       0.24198803      -0.15438793
Cd      -2.09462947       6.03965379      13.19606585       0.19407918      -0.00693141       0.30383026
Cd       2.14784269       6.00964176       0.23285039       0.21145313      -0.60796590       0.23770784
Cd       6.27795235       6.23364345       0.01802509       0.00869087      -0.66643594      -0.23475367
Cd      -3.95947057       9.74450773       0.21963388      -0.66598087      -0.07930400       0.34455671
Cd       0.22309239       9.46771986      13.29498907       0.31355885       0.18444025       0.30948961
Cd       4.18812622       9.71164529       0.01692128       0.34014983      -0.44615470       0.24560029
Cd       0.00879263       2.40457036       6.58817410      -0.25669502       0.44260899      -0.13793947
Cd       4.17382233       2.42522731       6.82380861       0.16835693      -0.29452711      -0.22083202
Cd       8.36432508       2.27733555       6.72357972       0.21209785       0.51761262      -0.29924947
Cd      -2.27925382       6.07420717       6.92713725       0.28709695       0.16464627      -1.25547104
Cd       1.95165362       5.71649681       6.64925575      -0.02225694       0.16219762      -0.50608784
Cd       6.13718071       5.96668502       6.83514765       0.18710294      -0.59975712      -0.16819357
Cd      -4.17754520       9.50247487       6.75544692       0.05452590       0.22300739      -0.12270423
Cd      -0.00481877       9.48836704       6.80328355       0.08673479       0.15367439      -0.20084136
Cd       4.12166287       9.63273144       6.64944119      -0.40454505      -0.43759452       0.00840421
Cd       2.13320332       1.17876515       3.45303687       0.21160342       0.34661567       0.20236244
Cd       6.30414490       1.20630160       3.44182774       0.12991985      -0.29604938       0.33715508
Cd      10.40542246       1.25802354       3.13056735      -0.33757895       0.42374590       0.28748352
Cd      -0.25016344       4.87351286       3.24794735       1.00824553      -0.16997485       0.19525815
Cd       4.01413669       4.53818100       3.34444833       0.46845630       0.16774724       0.02986275
Cd       8.19269640       4.89411817       3.32387593       0.15436624      -0.15676759       0.25281995
Cd      -2.11463112       8.38753354       3.36442956       0.29344970      -0.08924451      -0.40518845
Cd       2.01006585       8.54878456       3.39606626       0.11465599      -0.42034260       0.39218777
Cd       6.08961561       8.28493839       3.45798786       0.09758457      -0.68482311       0.05647174
Cd       2.09382603       1.09989403       9.95842070       0.01600176       0.22935232       0.21484985
Cd       6.16551838       0.96199662      10.07881963       0.57028831      -0.15817549       0.04471934
Cd      10.24340411       1.17915318      10.04717459       0.39724909       0.07464212      -0.21968532
Cd       0.03090371       4.81047530       9.96331522      -0.01900461      -0.61732206       0.17311060
Cd       4.06972538       4.67681882      10.13042195       0.15226926      -0.00403721      -0.34611028
Cd       8.04189860       4.54701029      10.15082827       0.01222423       0.08937725      -1.58887768
Cd      -2.11021423       8.10893845      10.24288054       0.05385625       0.59981590       0.08769591
Cd       2.08915374       8.28494376      10.11662167       0.80311267      -0.28035742      -0.06356032
Cd       6.14946629       8.47334492      10.13359836       0.13580530      -0.46510176       0.13116161
S        0.13126447       2.45196419       2.56245025      -0.11351308       0.11763626      -0.32206289
S        4.27260801       2.24573770       2.46845462      -0.66057228      -0.00485998       0.00513758
S        8.21399146       2.48814881       2.43607021       0.60574908      -0.19597859       0.10936729
S       -2.14549262       6.02124362       2.35977799      -0.58955242       0.47837941      -0.29046141
S        2.14476494       6.01150696       2.78040111      -0.81675979       0.13893962      -0.61635525
S        6.08656792       5.88530041       2.44515941      -0.12236690       0.37865366       0.61843300
S       -4.28118659       9.54887158       2.79802599       0.48747876      -0.05709927      -0.84833848
S       -0.01101152       9.58911846       2.41815042      -0.14644857      -0.01202402       0.23636331
S        4.19651599       9.58792077       2.61276130      -0.59650191      -0.04199345      -0.63603656
S       -0.03865642       2.17893936       9.08479732       0.29710009       0.87811473       0.59785908
S        4.28995958       2.27457566       9.27157477      -0.89371728       0.34082902       0.36915896
S        8.23986570       2.27068711       9.18309347      -0.44129716       0.00304273       0.37619027
S       -2.19605866       5.82630214       9.29322973       0.12790680      -0.23705651       0.85535866
S        2.11440041       5.90214130       9.12496150      -0.07234817      -0.01911574       0.41749668
S        6.13450086       5.96336810       9.32923836      -0.07043579       0.21174353       0.00238523
S       -4.09779198       9.42596059       9.28095337       0.27742132      -0.04447387       0.01536220
S        0.05110244       9.29426615       9.31603220      -0.88917633       0.31135940       0.07930422
S        4.15158251       9.59174254       9.20871638      -0.45706937      -0.48403401      -0.01894046
S        2.12385837       1.24153547       6.01346844      -0.02208966      -0.37686079      -0.36161897
S        6.26835870       1.21596042       6.05346048      -0.41182623      -0.58644842      -0.72677512
S       10.36052171       1.20280173       5.71630245       0.06581339      -0.08537018      -0.06843671
S       -0.26603062       4.86938370       5.75260478       0.30408613      -0.37214843       0.64875126
S        4.14353572       4.66416657       5.86002442      -0.05286427       0.54899833       0.08106291
S        8.27579293       4.71455984       5.89346247      -0.48041077       0.24065233      -0.07583446
S       -2.08081331       8.45402115       5.83080445      -0.11399162      -0.44588081       0.61604891
S        1.97044724       8.19819871       5.97568133       0.60763616       0.52689077      -0.32579501
S        6.15437575       8.27900406       5.98015882       0.00330859       0.32645021      -0.17873088
S        2.15154981       1.25185418      12.61066813      -0.02810330       0.20738550      -0.40009565
S        6.23457188       1.14051037      12.57340589       0.43149181       0.28381889       0.13373800
S       10.47145536       1.25423013      12.50119163      -0.11101370       0.26843249       0.57391934
S        0.11306830       4.92470666      12.60335151      -0.19098765      -0.40503031      -0.23019179
S        4.27934980       4.91243300      12.56470440      -0.41724617      -0.30776702       0.71216280
S        8.23394606       4.86454602      12.42886750       0.14569895      -0.19554963       2.05787901
S       -2.00801228       8.56020443      12.80015225       0.05696289      -0.85485905      -0.79240173
S        2.32832234       8.22460092      12.64622289      -0.31112745       0.74031605      -0.26748667
S        6.36153661       8.51333498      12.68763328      -0.11993736       0.68374700      -0.18657389
