72
Lattice="12.39778545 0.0 0.0 -6.19889272 10.73679715 0.0 0.0 0.0 13.44794642" Properties=species:S:1:pos:R:3:forces:R:3 ref_energy_eV=-267.25340735 ref_gap_eV=2.2138 energy=-240.51227851 stress="-0.009568590173501052 -0.00011456787448836053 -0.0025646495190700513 -0.00011456787448836053 -0.004613008893057991 -0.0007725163655065613 -0.0025646495190700513 -0.0007725163655065613 -0.00752737945581686" free_energy=-240.51227851 pbc="T T T"
Cd       0.01056694       2.32350700      13.40879017       0.19335368      -0.20622069       0.61144410
Cd       3.97740112       2.30230108      13.35239365       3.50918601       2.06428532       1.49110452
Cd       8.06717279       2.36070582       0.09252053       0.84639701       0.14248566      -0.04328197
Cd      -2.15395417       5.90451434       0.02251832       0.49175386       0.25099137      -1.04662365
Cd       2.03062436       5.91921925       0.07162134       0.12907441       0.23395675      -0.79254220
Cd       6.19804199       5.86223477      13.38296352      -0.95582054       0.49605438       0.44621948
Cd      -4.14051531       9.61359009       0.02607584      -0.36707473      -0.24219342       0.01459296
Cd      -0.01540827       9.54926369       0.00170883       0.10454476      -0.26278858       0.04079855
Cd       4.17971389       9.49872955      13.35647927      -1.70973357       0.90980973       0.72775873
Cd       0.01152225       2.38624630       6.78455258      -0.07660438      -0.14503655      -0.26169477
Cd       4.12006368       2.47054497       6.61309852      -0.36323122       0.36746577       0.61208466
Cd       8.35740780       2.38354835       6.64924176      -0.18452243       0.29687830       0.46828947
Cd      -2.05778523       6.01344312       6.73556373      -0.13844001      -0.48479282      -0.10798909
Cd       1.84729539       5.98764646       6.83468087       1.47503626       0.38118572      -0.20388456
Cd       6.23231728       5.95452076       6.64924620      -1.16478852       0.41328386       0.62086528
Cd      -4.11722489       9.70291692       6.79352949       0.16458684      -1.08202391      -0.72707410
Cd      -0.07290065       9.33919911       6.76342787       0.15297436       0.80876316      -0.15093106
Cd       4.01560161       9.58560817       6.70974959       0.79981951      -0.00997804      -0.16740131
Cd       2.17898406       1.07381586       3.43719828      -0.52940990       0.42364487      -0.46956040
Cd       6.26256385       1.18435043       3.36090700      -0.34856026       0.22332904       0.17365831
Cd      10.34070063       1.14439656       3.26878212       0.84631653      -0.19783470       0.23592224
Cd      -0.10766224       4.93478035       3.37015785       1.74860818      -1.30571077       0.47723586
Cd       4.02513334       4.89921192       3.22803632       1.07051021      -1.20289541       0.92562320
Cd       8.27991984       4.73659765       3.44566094       0.02639724       0.53026579      -0.59907887
Cd      -1.99674709       8.44936793       3.43103374      -0.77044218      -0.96001765      -1.36263103
Cd       2.07441507       8.34121693       3.37391440      -0.33264664       0.84272944       0.21254265
Cd       6.18640624       8.39200273       3.45741485       0.18971777      -0.11418001      -0.31881314
Cd       2.07210710       1.24253797      10.04192962      -0.11580791      -0.09499519       0.55082392
Cd       6.33332576       1.05627666      10.09519546      -0.68172753       0.86147795      -0.16156896
Cd      10.31792447       1.24090716      10.18257470       1.22173441      -0.61885265      -0.00891495
Cd      -0.00207086       4.78042998      10.08564379       0.08704991       0.00828686       0.31430554
Cd       4.11394593       4.79999286      10.02188949      -0.19224984       0.19140831      -0.17856141
Cd       8.28276582       4.78417315      10.13595511      -0.23789798      -0.48871783      -0.78667058
Cd      -2.05943643       8.29997217      10.02175771      -0.13150762       0.70385379       0.21510507
Cd       2.06935671       8.35191389      10.08700351       0.88992545       0.18283933      -0.52278120
Cd       6.19315702       8.35089422      10.11107923      -0.03378435       0.15750656      -0.23200236
S       -0.00037894       2.38479264       2.53261638       0.51269309       0.17061674       0.20983347
S        4.09151232       2.40715148       2.55778179       0.53471459       0.11441024      -0.32160228
S        8.39700304       2.38687365       2.61546541      -1.05159375       0.25936750      -0.59847297
S       -1.88064270       5.99653396       2.38943986      -1.97079340       0.83513067       0.60142562
S        2.20560186       6.12753437       2.48925845      -1.76964985      -0.40584083      -0.17494754
S        6.16156808       5.96802980       2.58054244       0.71656489       0.06200645      -0.55188606
S       -4.02496237       9.47809858       2.55380550      -0.91476073       0.04464844      -0.25059520
S       -0.11892978       9.49688401       2.55938196       1.84834262       0.91455655      -0.68817377
S        4.10693690       9.50779936       2.53837035       0.21057158       0.06294310      -0.36815025
S        0.02913827       2.43286031       9.26716721      -0.38279969      -0.18683758       0.12329100
S        4.03221594       2.45784785       9.31961191       1.15198511      -0.51753219      -0.73411931
S        8.37856059       2.17901612       9.30266145      -1.11793271       1.72146145      -0.94206932
S       -2.06459019       5.96562927       9.25407254      -0.10515852      -0.23043539      -0.13899910
S        1.99389046       6.03428056       9.26584218       0.29928018      -0.29269874       0.20844296
S        6.18244508       5.96470096       9.29628053       0.36936165       0.03273585      -0.42230200
S       -4.16353750       9.65103188       9.16082354       0.30523380      -0.71216384       1.38068431
S        0.11053351       9.52321300       9.27461468      -1.10129555      -0.37448972      -0.64708556
S        4.19943629       9.62456138       9.16772717      -0.20437973      -0.33519443       0.59347612
S        2.06773179       1.16025481       5.91050747       0.01898469       1.03504182      -0.15394742
S        6.19409683       1.43598209       5.92798993       0.27456572      -1.37619148      -0.29645298
S       10.35220373       1.22061568       5.82384285       0.35555421      -0.11466281       0.02948486
S        0.05324886       4.77641667       5.93041258      -1.19575499      -0.49568984      -0.70283706
S        4.08343051       4.86632844       5.85788767      -0.35893975       0.22676833       0.03981317
S        8.17825081       4.86555711       5.89268800       1.52223989      -0.77729487       0.19783313
S       -2.05313805       8.25835022       5.70703076      -0.33434032       0.42470218       2.40119893
S        2.06239015       8.35291628       5.89418664      -0.27993771      -0.14632486      -0.12123657
S        6.36137339       8.34460847       5.92320569      -0.77602197       0.38525260       0.19803094
S        2.20454414       1.25921554      12.72323040      -3.75900933      -2.21034558      -1.82002521
S        6.19168069       1.15366177      12.57265993      -0.41291340       0.17347279       0.30735999
S       10.36689275       1.21027443      12.62523535      -0.69446008      -0.11450282       0.55992940
S        0.06995296       4.62977983      12.62468116      -0.60625850       0.99402318      -0.20666575
S        4.03473139       4.70391656      12.48523524       0.40224393       0.31909934       0.90980209
S        8.19536664       4.77763251      12.56754783       0.54569711      -0.51978019       0.51475967
S       -2.12113711       8.47201624      12.56928463       0.09489592      -0.86253319      -0.08449892
S        2.03066372       8.35580684      12.47981101       0.01848491      -0.12798890       1.38130034
S        6.03789112       8.38446324      12.63597206       2.24184934      -1.04999370      -0.42896763
