72
Lattice="12.39778545 0.0 0.0 -6.19889272 10.73679715 0.0 0.0 0.0 13.44794642" Properties=species:S:1:pos:R:3:forces:R:3 ref_energy_eV=-269.38865967 ref_gap_eV=2.1842 energy=-242.51647088 stress="0.0018989796446292023 -0.0002716518418441773 0.000695791753248382 -0.0002716518418441773 -0.0011736664395096885 -0.0004690829589216785 0.000695791753248382 -0.0004690829589216785 -0.003331767328707235" free_energy=-242.51647088 pbc="T T T"
Cd       0.12063374       2.38432258      13.41610289      -0.37119019      -0.57611223       0.20885616
Cd       3.98159194       2.42125749       0.08026931       0.13023433      -0.25655578      -0.39241461
Cd       8.14249938       2.39852039       0.02185802      -0.01338935      -0.22950879      -0.59434495
Cd      -1.66774786       5.79905817       0.01790917      -0.15971389      -0.05328592       0.60183445
Cd       2.52970260       5.98257741      13.43277996      -0.44945413       0.41317301       0.13198169
Cd       6.43310549       5.80719172       0.02937300      -0.48802044       0.69821486      -0.62901625
Cd      -4.06113408       9.24727194       0.02870841      -0.24721596       0.25620130      -0.11769021
Cd       0.04536226       9.49280005      13.40839319       0.18068351      -0.05265658      -0.36283569
Cd       4.05220167       9.55102162       0.00290597       0.18973705      -0.47496444      -0.38292773
Cd      -0.22426602       2.35175949       6.70683703       0.65668267       0.05421369       0.23758410
Cd       4.23139374       2.21924003       6.58757822      -0.44582101       0.24367556      -0.12365039
Cd       8.25094783       2.47822489       6.78091289      -0.27361632       0.24240526       0.13648343
Cd      -2.16470094       6.02917972       6.68250028       0.48965211      -0.31639795       0.36793667
Cd       1.77333937       6.02681215       6.88539133       0.19733253       0.33994946      -0.40862339
Cd       6.06559372       5.88758800       6.63960321       0.18114969       0.10946390      -0.28077290
Cd      -4.10385518       9.45837938       6.74614457      -0.54707159       0.32660329      -0.20761651
Cd      -0.11740120       9.65825689       6.79947052       0.19224503      -0.16635746       0.32169289
Cd       4.18752183       9.56778595       6.87000312      -0.47959667       0.13178593      -1.10487745
Cd       1.98737437       1.36650986       3.45550672       0.44886700      -0.30994662      -1.18660206
Cd       6.27705264       1.06713682       3.10316420      -0.24490596       0.57908090       0.43237486
Cd      10.29452830       1.32168341       3.32073247       0.19543261       0.29572315      -0.18358863
Cd       0.35413090       4.97024818       3.38725072      -0.74954801       0.20175211      -0.03887861
Cd       4.16584622       4.87967911       3.64189620       0.15863865       0.03592146      -0.86523610
Cd       8.12397858       4.84013892       3.40680538       0.52520940       0.36231557      -0.46908757
Cd      -2.14337694       8.43572104       3.38664516      -0.02547435      -0.35117055      -0.51290503
Cd       2.14953995       8.52276779       3.47784362      -0.23860542       0.50030849       0.08564122
Cd       6.08798437       8.44686637       3.32835383       0.61098541      -0.00300532       0.27609997
Cd       2.01497903       1.13467965      10.12071644       0.18257077      -0.14028437      -0.30758205
Cd       6.04507123       1.29565065      10.19912361       0.28006939       0.16080607      -1.20517873
Cd      10.37131981       1.17209470      10.06388205      -0.60120745      -0.40441885       0.87039507
Cd      -0.00086183       4.76403768      10.11609734      -0.26331880      -0.45887526       0.14553617
Cd       4.18162160       4.70286908       9.77656587      -0.46031972       0.07518561       0.73082220
Cd       8.35498881       4.75514010      10.08172613      -0.60202585      -0.37663548       0.41692728
Cd      -2.24762105       8.29498342      10.15814651       0.46420404       0.11526756      -0.03469196
Cd       1.97634983       8.34118386       9.91918955      -0.15140675       0.32654699       0.50116018
Cd       6.15010019       8.13492258       9.95028859      -0.51859621       0.49944589       0.84517076
S        0.07022075       2.62410404       2.54886540      -0.52399008      -0.35617111      -0.25009546
S        4.19560425       2.47524425       2.56519027      -0.26344323       0.14342696       0.32212535
S        8.18896578       2.55567338       2.47961856       0.27201815      -0.60134033       0.34724885
S       -2.04403720       5.95654153       2.67358811       0.45179977       0.06834294      -0.46729293
S        2.28135159       6.29082731       2.52114757       0.15721675      -1.08901615      -0.14511909
S        6.25261494       6.12300645       2.42332048      -0.66754392      -0.35276651       0.98875925
S       -4.17831212       9.63536464       2.51841185       0.00417180       0.16034912       0.20009374
S       -0.01353057       9.48953929       2.41608374       0.10754537      -0.33726051       0.56140903
S        4.15861528       9.66645991       2.47437709      -0.40956365       0.40807804       0.42689441
S       -0.03417797       2.28036000       9.31362596       0.31138683       0.79451150      -0.59038056
S        4.02617295       2.34936443       9.11994783       0.01867264      -0.41647247      -0.01003622
S        8.27607882       2.34308029       9.30329525      -0.40369968       0.09073007      -0.00538345
S       -2.08356915       5.90989509       9.27423088       0.52723706       0.42012109      -0.41385896
S        2.00516172       5.94522409       9.33981436       0.39327019      -0.05753429      -0.11656580
S        6.20096960       5.86315212       9.11769248       0.63447128      -0.32541604       0.25206253
S       -4.28873585       9.43700875       9.27498208       0.54522411       0.43227543      -0.29667566
S       -0.10955848       9.64137070       9.39998693      -0.31085950      -0.47575557      -0.64631911
S        4.07407118       9.49610366       9.23456091       0.23826893       0.06253945       1.00855554
S        1.95969414       1.20877117       5.81222961       0.14501421      -0.35324147       1.54973806
S        6.32942300       1.18504725       5.75948811      -0.34910846       0.13966634      -0.16632695
S       10.16561476       1.22878993       5.87287621       0.31236130      -0.57212296      -0.25151905
S       -0.10198548       4.74440395       5.91293308      -0.03439393       0.09907155      -0.08928875
S        3.88431855       4.79955168       6.08357662       0.32821432      -0.43411979      -0.07810653
S        8.26742709       4.86645878       5.83817244      -0.74311508      -0.48119239       0.58552031
S       -2.08316932       8.32382471       5.87505882       0.19919808       0.62578536       0.17544275
S        1.97499760       8.45015677       5.95957002       0.13097548      -0.22092284       0.33950879
S        6.07944453       8.30179012       5.90658726       0.53370907       0.18367800      -0.29554609
S        2.05518895       0.98872330      12.55436629       0.30049971       0.12445706       0.74496551
S        6.07797062       1.08961774      12.53110107       0.15811170       0.63843619       1.68105184
S       10.26583226       1.15728801      12.80351088       0.36821412       0.84476274      -0.85866207
S        0.46003254       4.68984126      12.61701556      -0.64592912       0.33630764      -0.01837702
S        4.36456059       4.71653444      12.48656725       0.22887474      -0.38082671      -0.38465765
S        8.48553507       4.78436233      12.67986427       0.32739281      -0.26604729      -0.57944222
S       -1.92815498       8.17518986      12.66258796      -0.43923220      -0.00021457      -0.17843281
S        2.07634355       8.31187648      12.52262039       0.11711726      -0.07978218      -0.06689906
S        6.13683685       8.34987057      12.57883590       0.22671703      -0.57020074      -0.17636681
