72
Lattice="12.39778545 0.0 0.0 -6.19889272 10.73679715 0.0 0.0 0.0 13.44794642" Properties=species:S:1:pos:R:3:forces:R:3 ref_energy_eV=-269.39207641 ref_gap_eV=2.2144 energy=-242.53841554 stress="-0.002760639009818711 -0.0027672199384523688 -2.6271828869268197e-05 -0.0027672199384523688 -0.0012596503243146064 -0.0007666819463303955 -2.6271828869268197e-05 -0.0007666819463303955 0.0014085471668368013" free_energy=-242.53841554 pbc="T T T"
Cd       0.04612454       2.54806325      13.36192233      -0.03218246       0.00350143      -0.38325823
Cd       4.02756355       2.32525828      13.28818468       0.01527840       0.31813478      -0.00913027
Cd       8.17730195       2.32748316       0.03637723       1.11006940       0.36051900       0.51462906
Cd      -2.22321316       5.77711086      13.34541928       0.33452423       0.65428686       0.43687619
Cd       2.04339017       5.95128501       0.16366258       0.04966391       0.04784009       0.32615501
Cd       6.25253292       6.03660175      13.43032840       0.16772435      -0.11390598       0.06799727
Cd      -4.06699421       9.53641550       0.08913891       0.56321436       0.29692631       0.03989962
Cd       0.15449451       9.46523075      13.34345386      -0.27978188       0.12497402       0.57157196
Cd       4.22866512       9.58837140      13.35463905       0.02666086      -0.41927419       0.65432982
Cd      -0.00491653       2.14058612       6.75573296      -0.26862656       0.15276332       0.16926972
Cd       4.01818246       2.20770528       6.75884938       0.62410934       0.76672984       0.44473620
Cd       8.19097360       2.41842813       6.90337298       0.02969955      -0.06892947      -0.24050061
Cd      -2.04817205       6.07501618       6.64587305       0.01019174      -0.61190172       0.43524791
Cd       1.92922553       5.84622309       6.79284835       0.74799926       0.27816754       0.21782122
Cd       6.09940955       5.92126911       6.68636549      -0.39607474       0.72758305       0.16339925
Cd      -3.95473300       9.75809493       6.58466647      -0.81093887      -0.66338262       0.62600036
Cd      -0.17326537       9.56597648       6.79835945       0.31722375      -0.27199395      -0.08621497
Cd       4.02109439       9.48606250       6.47444939      -0.14526308      -0.10283367       0.12536865
Cd       2.24361508       1.29818936       3.10557004      -0.76333206       0.15428191       0.01578531
Cd       6.07772179       1.46637002       3.31979475       0.53603524      -0.53200799       0.36490985
Cd      10.46130461       1.23250840       3.29596405      -0.13187350      -0.02759871      -0.19700619
Cd      -0.01676112       4.83415262       3.55198444      -0.19582777       0.21871825      -0.67775410
Cd       4.07030659       4.90429096       3.38993682       0.18444243      -0.23750663       0.13318244
Cd       8.37996204       4.76699395       3.52387097      -0.60967946      -0.09127048       0.01726251
Cd      -2.14575923       8.52120001       3.18904480       0.23491373      -0.40225092      -0.06760302
Cd       1.97810728       8.52899267       3.45888188      -0.10373702       0.37811877      -0.63638533
Cd       6.12682440       8.19200293       3.51661311       0.10497659       0.03238660      -0.81390097
Cd       1.93908785       1.15765339      10.00432379       0.56328375      -0.48293299       0.24941183
Cd       6.16745070       1.19603067      10.41879528      -0.34229654      -0.31970135      -0.68937600
Cd      10.25309180       0.91404265      10.06962903      -0.34002734       1.25408738       0.75332840
Cd       0.01550715       4.71942296       9.94473661      -0.06896671      -0.22295084       0.45677595
Cd       4.22301154       4.75596114      10.25318745       0.17368179      -0.38262129      -0.28064356
Cd       8.46171272       4.76155244       9.94731364      -0.92503858       0.26734027       0.20242675
Cd      -1.88821402       8.34785087      10.22911038      -0.45465217       0.30010270       0.06214460
Cd       2.31139595       8.27295914      10.05891949      -0.51193156      -0.14202425       0.00615753
Cd       6.31642454       8.30409091      10.09053198       0.04629177       0.40727756      -0.29868691
S        0.02845862       2.57941051       2.38790801       0.19278590      -0.34633581       0.67099227
S        4.14739180       2.58689159       2.34494989      -0.12137214       0.23331815       0.19409172
S        8.28305357       2.43948299       2.57807138       0.16639455      -0.15988390       0.07096357
S       -2.20313910       5.95984804       2.44666706       0.94251435       0.61053405       0.34061914
S        2.06146614       6.11777816       2.75750222      -0.71629981      -0.13417701      -0.81299971
S        6.19048238       5.85819548       2.54658570       0.50916339       0.34345175      -0.13102746
S       -4.29004314       9.65528022       2.54181088       0.00475060      -0.38074379       0.25535348
S       -0.05715825       9.77382219       2.46274852       0.13473417      -0.38604335       0.24304540
S        4.17927445       9.51549560       2.61274705      -0.23588629       0.20414097      -0.52684584
S       -0.10213463       2.23303725       9.32714478      -0.45776291       0.66256855      -0.51298570
S        4.07034806       2.29746823       9.38425512       0.39444267       0.25969754      -0.31834897
S        8.13856234       2.38174479       9.44487940       0.57018178      -0.49240303      -0.46948419
S       -2.00023453       6.02495930       9.26162612       0.25606425       0.14670811      -0.48775386
S        2.15818573       5.79471438       9.37835886      -0.23708506       0.63648836      -0.63484312
S        6.10873368       6.03399840       9.20694878       0.61046964      -0.72965344       0.25531258
S       -4.05190697       9.51473726       9.17675868       0.31196829      -0.07343298      -0.08241917
S        0.10804075       9.51042128       9.29501266       0.25552213       0.26654165       0.37626341
S        4.23699432       9.52039566       9.08969426       0.04261350      -1.00619567      -0.22714316
S        2.06413458       1.24959763       5.65725225      -0.31887079       0.24939211       0.03259286
S        6.16646576       1.15379673       5.93806029       0.01470129       0.45659287      -0.33560905
S       10.25400973       1.18741353       5.83192090      -0.20488118       0.20629760       0.26991937
S       -0.02278669       4.61304847       6.01762319      -0.68641854      -0.01649686       0.07906551
S        4.07504329       4.75643990       5.88922421      -0.26102138      -0.48220442       0.30278088
S        8.18895035       4.88007240       6.04925437       0.69789344      -0.75557375      -0.23698914
S       -2.15073273       8.33658164       5.79312371       0.55060979       0.27603492      -0.46863891
S        1.86451691       8.23201758       5.87875324       0.15832923       0.27256556       0.84654868
S        6.22178202       8.43037873       5.89698811       0.18681449      -0.21180258       0.85619859
S        2.03596860       1.10922034      12.54065732      -0.31724726       0.37608431       0.13392700
S        6.20985293       1.18613424      12.88387459      -0.83302670      -0.54726489      -0.59264382
S       10.33913045       1.20872994      12.70865794       0.00273993       0.30491957      -0.60198016
S       -0.01707534       4.99589979      12.57205787       0.23933092      -0.75979214      -0.31979731
S        4.12774330       4.80939829      12.73134368       0.11307940      -0.04083346       0.09037967
S        8.25689430       4.59978809      12.49908756      -0.75792726       0.55499299      -0.12267317
S       -1.98621647       8.36198705      12.78129594      -0.26751408      -0.46474896      -0.43191137
S        2.14590727       8.28920144      12.64128763       0.67136463       0.03974153      -0.36577200
S        6.40611713       8.46076429      12.57698950      -1.07090905      -0.76313721      -0.01241524
