72
Lattice="12.39778545 0.0 0.0 -6.19889272 10.73679715 0.0 0.0 0.0 13.44794642" Properties=species:S:1:pos:R:3:forces:R:3 ref_energy_eV=-268.71246588 ref_gap_eV=2.1887 energy=-241.84725219 stress="0.0003529686257171979 -0.004021151080573801 -0.0002164248906758233 -0.004021151080573801 -0.002348420817750582 0.0009759195707270178 -0.0002164248906758233 0.0009759195707270178 -0.002291175387496954" free_energy=-241.84725219 pbc="T T T"
Cd       0.09206131       2.38315120       0.04517475       1.12729562       0.45728503       0.30833081
Cd       4.03591693       2.50489714      13.34285704       0.63489149       0.68641650      -0.42396295
Cd       8.19467744       2.36535421      13.37346578       0.60293351       0.01753877       0.45946125
Cd      -1.99413438       5.92172833      13.41128611      -0.49726880       0.13046466       0.07890326
Cd       2.10383687       6.18519526       0.12825844      -0.34686396      -0.41566629       0.12115150
Cd       6.32281008       6.16650250       0.11125486      -0.18743074      -0.18436582      -0.27197770
Cd      -4.07430710       9.62668759       0.17543250      -0.10935266      -0.19465947      -0.63492951
Cd      -0.10020627       9.59072834      13.28655049      -0.63334421      -0.08913848      -0.00796738
Cd       4.22155579       9.56776909       0.02092057       0.43528380      -0.02111365      -0.40412072
Cd       0.17201016       2.27254114       6.55416223      -0.19191854      -0.38483831      -0.18023904
Cd       4.20518594       2.46296855       6.80586798       0.51619009      -0.92896326      -0.01357041
Cd       8.28067313       2.13994105       6.69496505       0.13861975      -0.84245584       0.03032768
Cd      -2.11834222       5.63014612       6.86761920      -0.01438595       0.62321637      -0.09692986
Cd       2.07260617       5.93047066       6.75927864       0.29251981       0.65311011      -0.40967300
Cd       6.29437508       5.89040136       6.88760016      -0.06955093      -0.20376897      -0.35668588
Cd      -4.11651443       9.66730006       6.69511486       0.35582059      -0.27773274      -0.04755084
Cd       0.05754550       9.46680508       6.87903032       0.18029004      -0.22047750      -1.11134823
Cd       4.09039144       9.41898092       6.72527860      -0.24886916      -0.38912680       0.29162370
Cd       2.24588344       1.28947033       3.25287346      -0.29447886      -0.49927077      -0.68526259
Cd       6.21040642       1.19072777       3.22638262      -0.70521523      -0.21812382       0.07360574
Cd      10.35260709       1.12064010       3.41099200       0.23819001       0.66917647      -0.47223645
Cd       0.04359062       4.76997417       3.58998524      -0.93493188      -0.62613064      -0.41205248
Cd       4.20325641       4.78797655       3.37027646      -0.32140349      -0.09217225       0.04562250
Cd       8.20496853       4.71317468       3.21342109       0.07440576       0.43164639       0.59500305
Cd      -2.15815194       8.13723539       3.48377027       0.20912440       0.22419230       0.33970881
Cd       1.88670683       8.41456246       3.10757943      -0.40651413       0.03059851       0.00210181
Cd       6.11111752       8.45734827       3.47174054       0.17650632       0.05437426       0.19535312
Cd       2.17643564       1.30614823       9.89320946      -0.60092626      -0.83354044       0.88841390
Cd       6.02415542       1.39235269      10.00978661       1.35086279      -0.68200864       0.00367574
Cd      10.36741736       1.21832864      10.23725782       0.14913513      -0.35539477      -0.53431078
Cd       0.13122145       4.55327801      10.16726395      -0.31423696      -0.03184666      -0.18562173
Cd       4.09147426       5.07174216      10.10162909       0.11373852      -0.16494518       0.46193616
Cd       8.30634523       4.72698757      10.10430846      -0.56629813      -0.02559960       0.25237637
Cd      -2.15673766       8.12790565       9.98605126      -0.64613288       0.97196363       0.06638145
Cd       1.69438922       8.40195284      10.18425287       0.46853574      -0.07059165      -0.55420278
Cd       6.14413376       8.46373291       9.90113487      -0.62812712       0.89377613       0.44453252
S        0.10090992       2.37140181       2.54108818      -0.48480471       0.02569284       0.39432990
S        4.17133075       2.49617070       2.32888120       0.47772739       0.04249818       0.59624871
S        8.23650844       2.34292740       2.66215789       0.72322257      -0.07456813      -1.10883639
S       -2.04008820       5.85501212       2.52317431      -0.01967086      -0.23538145       0.05377912
S        1.97213724       5.84559520       2.73085780       0.96772423       1.09269767      -1.08054901
S        6.15604108       6.08944075       2.61337251       0.38862024      -0.15542272      -0.01150562
S       -4.10425308       9.45531113       2.61593771      -0.35879720       0.49903172       0.29993938
S       -0.38098462       9.62514686       2.35263431       0.84690008      -0.59110247       0.13467145
S        4.07724390       9.58327464       2.51007561      -0.15866122      -0.57976014      -0.20292117
S        0.08766015       2.24402303       9.06426795      -0.74583306       0.40757312       0.49982659
S        4.09033125       2.56872149       9.35307000       0.20937146       1.17241703      -0.85476612
S        8.36564544       2.39225944       9.24598589      -0.61257278      -0.41282408       0.00538121
S       -2.05066673       5.83816072       9.40197816       0.66916525      -0.77204359      -0.62560225
S        1.97284770       5.99315262       9.24789590      -0.15257280       0.40054421       0.14474367
S        6.23704121       6.12537584       9.42264537       0.21294310      -1.17936934      -0.64269464
S       -4.20335032       9.64122478       9.25584834       0.59646098      -0.20813798      -0.40409650
S       -0.30209559       9.58861072       9.26306061       0.48567112       0.53327161       0.49475819
S        3.84551993       9.53431495       9.25067774       0.41460026       0.06544512       0.22805534
S        2.32579554       1.25967347       5.65421045      -0.43480787      -0.44803138       1.26382059
S        6.21292999       0.99894839       5.71897469      -0.22449059       0.44577787       0.96679629
S       10.46304396       0.93724015       5.82757277       0.02404032       1.12662454       0.59333674
S        0.06550662       4.69883419       6.02723000      -0.43396173      -0.05437198       0.10994065
S        4.09262843       4.67017703       5.89758870       0.59543908       1.16734106       0.01805660
S        8.28386364       4.43410074       5.98537810      -0.38899967       1.39476550      -0.67601916
S       -2.00642059       8.20475363       6.03235165      -0.44676827      -0.28357968      -0.08434439
S        2.08368297       8.35609738       5.62591006      -0.35581357      -0.41094901       0.97106815
S        6.22120416       8.31853416       6.02597140       0.25940351      -0.29616700      -0.25185321
S        2.18484741       1.19437259      12.55128388      -0.69774317      -0.14834395      -0.33596546
S        6.18026115       1.26990488      12.47909463      -0.26105941      -0.13947648       0.40736160
S       10.57619539       1.27166056      12.70247363      -1.75148846      -0.55904417      -0.26278216
S        0.02598998       4.76110879      12.66367308       0.75740840       0.14747816      -0.07495990
S        4.16073368       5.08538015      12.67600189      -0.00404912      -0.68257419      -0.11880974
S        8.21773584       4.76779331      12.63880164       0.23140008      -0.01974600       0.21530574
S       -2.25325733       8.24313264      12.46365021       0.62359555       0.39830018       0.68029547
S        2.05588813       8.53603558      12.61008234       0.03079717      -0.27743466       0.48070989
S        6.31991408       8.40940676      12.50091863      -0.32948980       0.51704202       0.32141342
