72
Lattice="12.39778545 0.0 0.0 -6.19889272 10.73679715 0.0 0.0 0.0 13.44794642" Properties=species:S:1:pos:R:3:forces:R:3 ref_energy_eV=-266.36300272 ref_gap_eV=2.1604 energy=-239.64540634 stress="-0.010526082100473502 0.002783909790028563 -0.00021673976232820588 0.002783909790028563 -9.793900869783557e-05 0.0009336360364895921 -0.00021673976232820588 0.0009336360364895921 -0.014194715342085213" free_energy=-239.64540634 pbc="T T T"
Cd      -0.12925534       2.52594362      13.42973239       0.35858190      -0.51504078      -0.39286323
Cd       4.13217960       2.38585666       0.00032652      -0.49198562      -0.29846707      -0.16758248
Cd       8.03959323       2.36213220      13.39810604       1.66883831       0.25647202       0.50699685
Cd      -2.09364310       5.95958542      13.40720062       0.46831409      -0.06612411       0.31908933
Cd       2.12852396       5.94112682      13.37373621       0.32034270       0.72146802       0.85670651
Cd       6.31100268       5.83470476      13.35258206      -1.16318395       1.03378808       0.39702964
Cd      -4.09612348       9.47616929       0.03676050      -0.58894126       0.15808152       0.06946357
Cd      -0.01705743       9.54189524      13.43553787      -0.33645298       0.35922795      -0.78721820
Cd       4.14383110       9.49682055      13.42719584      -0.61286003       0.18569436      -0.15310614
Cd      -0.02297557       2.46923637       6.73198442       0.45248071      -1.17925216       0.80477740
Cd       4.18604364       2.31305172       6.51646508      -1.43896137       1.66620781       1.47147900
Cd       8.42399866       2.23837977       6.70103841      -1.66447618       1.11835737       0.53165856
Cd      -2.03239816       5.96934108       6.70480195       0.49930038       0.13382687      -0.20907478
Cd       2.11606537       5.91316638       6.71191296       0.07585369       0.68460383      -0.26758225
Cd       6.20237427       5.97428506       6.73103809       0.20835638      -0.08486460      -0.44808634
Cd      -4.12693260       9.53502090       6.75335132       0.35544981      -0.02006531      -1.53597526
Cd       0.00967071       9.53163172       6.73893714      -0.12047566      -0.26896846      -0.13597817
Cd       4.12579239       9.41739842       6.73765448      -0.42754159       0.23299069       0.11140180
Cd       2.06407277       1.19126364       3.49401007      -0.37463621      -0.09495212      -2.41667980
Cd       6.15372679       1.35571702       3.39410756      -0.17165951      -0.78752822      -0.01642045
Cd      10.28881943       1.35344919       3.52344588       0.42704328      -0.34034290      -1.24482255
Cd      -0.00076538       4.75979150       3.43047565       0.08809068       0.14737678      -0.13990459
Cd       4.13401646       4.78069991       3.38208846      -0.25177417       0.28978268      -0.50359614
Cd       8.06618351       4.85637092       3.44595330       1.78727717      -0.87917758       0.19252121
Cd      -2.07501288       8.33841935       3.38041890       0.66499324      -0.05979748      -1.07627802
Cd       2.16241102       8.55007351       3.29034092      -3.16191304      -1.98673348       0.33915166
Cd       6.20089082       8.33475950       3.42653715      -0.09230519       0.11579635      -1.69221880
Cd       2.06565535       1.20030617      10.11560312      -0.13179879      -0.01230990      -0.63478510
Cd       6.20614865       1.16462576      10.04576242       0.78853059      -0.19640568       0.17293765
Cd      10.26608189       1.01450719       9.98167825       0.21623842       1.36060677       0.61703311
Cd       0.05378699       4.80431893      10.09288618       0.05845134       0.22698158      -0.03199210
Cd       4.12025807       4.77753953      10.07676962       0.38466295      -0.45797401      -0.08644795
Cd       8.27010972       4.77109176      10.08526577       0.21673663      -0.29710904       0.03550574
Cd      -2.16653706       8.33835643      10.14244536       0.10027389      -0.19135245      -0.62904478
Cd       1.90189362       8.44673549      10.18730744       1.43698788      -0.94845430      -0.41855638
Cd       6.19046657       8.33740708      10.10754498       0.34718522      -0.29711915      -0.64047668
S        0.06450785       2.38229827       2.44774263      -0.49384051      -0.08731057       0.75519153
S        4.03237588       2.41311449       2.57781574       0.44453177      -0.01219642      -0.57933013
S        8.24070304       2.33528484       2.53105669       0.00078429       0.68533333      -0.09775187
S       -2.09407008       5.96995158       2.51486845      -0.04193550      -0.44405700       0.04594611
S        2.07550924       5.94661880       2.46152946      -0.08033757       0.31858625       0.47841224
S        6.25245271       5.87143610       2.46709059      -1.47608915       1.22761084      -0.56663699
S       -4.01349200       9.58433908       2.57003166      -1.09037938      -0.16758663      -0.29594605
S       -0.02424783       9.56811203       2.30963275      -0.15706671       0.29501625       2.26532536
S        3.91712836       9.52928487       2.46499069       3.92649120       1.86851027      -0.93473487
S       -0.00138880       2.43323696       9.37968470      -0.24251816      -0.53252496      -0.75030921
S        4.20075429       2.20755657       9.41041151      -0.92146363       1.39924252      -1.17580154
S        8.24568999       2.40239143       9.25334514       0.24898162      -0.36613407      -0.23201628
S       -2.09472753       5.79283909       9.12182584       0.44471054       0.97513593       1.11762905
S        2.15589511       5.98467130       9.16892767      -0.32197148       0.37010666       0.58385974
S        6.31411279       5.91093602       9.18471476      -0.87643048       0.42248265       0.39708364
S       -4.21635646       9.59121149       9.09234390       0.34084389      -0.37945861       1.38938813
S        0.08100558       9.53584097       9.25666275      -1.65548026       0.18384545      -0.63031180
S        4.16440194       9.49310079       9.29698601      -0.58880567      -0.88676355      -0.77177261
S        2.18464310       1.25527063       5.73861528      -1.27868434      -0.58595954       2.79524492
S        6.04542011       1.18479172       6.00685178       2.93408798      -0.91324963      -0.99430362
S       10.35214465       1.20495037       5.92290338       1.12232802      -0.99218954       0.21457060
S        0.07540011       4.71500241       6.07540377      -0.28663571       0.99846773      -1.25259887
S        4.12987268       4.77422937       5.84720570       0.47203528      -0.04459164       0.37987589
S        8.39730133       4.85873323       5.89445856      -1.11951042      -0.98596876       0.02920461
S       -1.96985598       8.23421615       5.74411549      -0.29832969       0.79901757       1.42722372
S        2.02335361       8.42765426       5.69332703       0.12262935      -0.48694844       1.30523864
S        6.15436924       8.39471678       5.77480774       0.43591596      -0.23849153       1.29623946
S        1.93288096       1.02771033      12.49078695       0.32639436       0.75225258       1.47570651
S        6.21964085       1.17697554      12.56315573      -1.23854273      -0.42927545      -0.20712264
S       10.35024773       1.15800190      12.58245340      -0.68313150       0.22425479      -0.05610325
S        0.16159007       4.86990787      12.63929625      -1.63340179      -0.49751418      -0.59041554
S        4.12035304       4.82058678      12.63355344       0.68091309      -0.62086119      -0.38257355
S        8.24600905       4.77261875      12.59947231       1.11804386      -0.69807744      -0.39563881
S       -2.07764469       8.35934945      12.62981263      -0.07671536      -0.33877694      -0.39436514
S        1.83589011       8.29457177      12.56144233       1.40111745      -0.01462112       0.53801474
S        6.10810902       8.33528861      12.50918038       0.64643766      -0.50652952       1.01651606
