72
Lattice="12.39778545 0.0 0.0 -6.19889272 10.73679715 0.0 0.0 0.0 13.44794642" Properties=species:S:1:pos:R:3:forces:R:3 ref_energy_eV=-268.10373337 ref_gap_eV=2.2194 energy=-241.32942051 stress="-0.005328397455791911 -0.001524265900709865 -0.000655620988574595 -0.001524265900709865 -0.0049800038812300215 -0.00037273969813753007 -0.000655620988574595 -0.00037273969813753007 -0.004879758104381897" free_energy=-241.32942051 pbc="T T T"
Cd      -0.00085204       2.42289796      13.40695775      -0.06938763      -0.09010342       0.28036837
Cd       4.23025036       2.34393880       0.10753220      -0.43486190       0.28411782      -0.80527695
Cd       8.27317142       2.33799363      13.38695460       0.08792705       0.11814184       0.51059634
Cd      -2.10762024       5.95973101       0.09309664       0.04244358      -0.29974649      -0.52161667
Cd       2.01102662       6.03821979       0.20639532       0.19490684      -0.11767646      -0.65375113
Cd       6.18345017       5.96908265      13.44113840       0.09917205      -0.18560846       0.14539716
Cd      -4.16091785       9.57148832      13.41493655       0.08404651      -0.41814169       0.47912951
Cd       0.02490058       9.52268120       0.04051059      -0.44276941       0.01926515      -0.22640130
Cd       4.15308438       9.64056039       0.21611980       0.27439075      -0.28374201      -0.75527492
Cd      -0.00057798       2.40200426       6.76953566       0.69940704      -0.14387491      -0.15734882
Cd       4.05031132       2.45724691       6.81072564       0.31086419       0.10380524      -0.47014229
Cd       8.25075349       2.33872996       6.71687175       0.47046520       0.22858418      -0.09151612
Cd      -2.02152351       5.94038255       6.65860194       0.06049217      -0.09151368       0.18616951
Cd       2.11238360       5.98833405       6.68523048       1.01395026      -0.07980699       0.11651197
Cd       6.21978690       5.94281046       6.74504372       1.12855234       1.11756416      -0.42458395
Cd      -4.08953530       9.56749026       6.75673550      -0.27384832       0.04568961       0.04831068
Cd      -0.02928418       9.60988354       6.73118992       0.14685105       0.22916181      -0.12032855
Cd       4.13199289       9.54278811       6.69929031      -0.27320122       0.23139226       0.79276584
Cd       2.19451099       1.29014095       3.33646792      -2.26749642      -0.95665979       0.36051676
Cd       6.05194184       1.06495102       3.31734803       0.61969906       1.21505870       0.53556515
Cd      10.50313889       1.27669580       3.44710457      -0.65261016      -0.72418025       0.06876200
Cd       0.00054278       4.77204164       3.36380799       0.18788145       0.38692094       0.34867913
Cd       4.18905841       4.59635640       3.29953165       0.10712400       0.77686865       0.77987223
Cd       8.17853020       4.56669374       3.42154635       0.15187614       0.49556450      -0.60632794
Cd      -2.12356776       8.49926204       3.27692391       1.74635383      -1.34047967       0.71045594
Cd       2.06553292       8.33991155       3.37626671       0.70550735       0.69617204       0.57705748
Cd       6.23017079       8.37099855       3.27699424       0.70576772      -0.39897897       0.78104573
Cd       2.10980957       1.23216118      10.03178275      -0.14268502      -0.16361360       0.56612019
Cd       6.32387734       1.25262165      10.04284422      -0.74651555      -0.75259678       0.31780404
Cd      10.37286860       1.31763510      10.21483054      -0.28054024      -0.39627251      -1.42978987
Cd       0.00220123       4.76432382      10.07107415       0.01858066       0.16775941      -0.09284293
Cd       4.08650442       4.70670491      10.03726009      -0.23288735       0.36461886       0.37375770
Cd       8.27498329       4.70757888      10.04647274      -1.16310212       0.36255139       0.05049271
Cd      -2.14691520       8.34206728      10.20564129       1.21409582      -0.78667766      -1.08613540
Cd       2.02446142       8.28147374      10.21219636       0.30130345       0.57134091      -0.52268001
Cd       6.20541365       8.21322862      10.08604104       0.11404802       0.72113993      -0.00147639
S       -0.03687913       2.42338284       2.56968565       1.31993180       0.27888931      -0.72324785
S        4.04240798       2.30615698       2.53511582       1.89957922       0.82164315      -0.57714521
S        8.35720981       2.22012399       2.68224711      -0.78919989       0.09101929      -1.04841055
S       -2.06744968       5.96519475       2.53371723      -0.17158523       0.15013123       0.64628191
S        2.21675702       6.06827133       2.68497045      -0.52040461      -1.23630969      -0.27349512
S        6.16078590       5.97562437       2.62763043       0.47372376      -0.44568201      -0.62911964
S       -4.04078330       9.57747838       2.70273384      -1.63893785       0.83884657      -1.34344137
S        0.14242415       9.59711663       2.58833055      -0.75164905      -1.11092883      -0.71725501
S        4.28917096       9.56336400       2.63099308      -1.18258648       0.52522224       0.14068162
S       -0.01031167       2.37677655       9.24390508       0.47246933       0.04746713       0.29358338
S        4.20194888       2.36148091       9.25214814      -0.21651946      -0.08122977       0.35557883
S        8.23225798       2.41427750       9.27155433       0.93332713      -0.29972084      -0.65003654
S       -2.17688140       5.76660018       9.24970518       1.15402963       1.32311104      -0.51719928
S        2.03605824       6.01389192       9.18771069       0.07260825      -0.36303704       0.51566379
S        6.05424020       5.97276151       9.13674512       0.68366004      -0.47394119       1.08004391
S       -3.99048301       9.53254402       9.37725519      -1.50328492       0.46785996      -0.91529616
S       -0.00188192       9.57816371       9.25953415      -0.04989190      -0.29199533       0.23903365
S        4.20107496       9.61422582       9.45609916      -0.45508573      -0.21723610      -0.80064336
S        2.16480094       1.24342515       5.77115904      -0.54244695      -0.20048628       1.06936265
S        6.17108635       1.39416538       5.80882835      -0.22640114      -0.90455416       0.34527135
S       10.47328273       1.23483142       5.89209293      -0.98191310      -0.29131790       0.54901017
S        0.19132951       4.74615877       6.01652153      -1.13681164      -0.02423600      -0.92661510
S        4.35658119       4.81487739       5.95363571      -2.01947384      -0.72990320      -1.00661910
S        8.26138317       4.77597292       5.84331077       0.41606882      -0.04845468       0.70518329
S       -2.05761259       8.35419170       5.89633320       0.15707174      -0.03775856      -0.22067344
S        2.06793363       8.30523899       5.92306543      -0.13821023       0.87906660      -0.14065063
S        6.14328897       8.44472770       5.89405942       0.89244193      -0.49717881      -0.05679429
S        2.07134011       1.17149741      12.77683795       0.20914081       0.55462918      -0.76512042
S        6.16847240       1.18475296      12.58832813       0.29702847      -0.27934571       0.11769007
S       10.36596546       1.15792234      12.54155645      -0.06814094       0.22994937       1.72936871
S        0.00271171       4.77372378      12.59908676       0.10505277       0.43575872       0.27410044
S        4.10183515       4.72716946      12.65024006      -0.18329617       0.21398574      -0.01891066
S        8.28488038       4.72703428      12.50494737      -0.25461203       0.08825446       0.91101160
S       -2.15054273       8.27534915      12.55787405       0.61272990       0.30176266       1.58990675
S        2.12232830       8.47085516      12.68513358      -0.02554281      -0.60885468       0.36911024
S        6.22026756       8.34999673      12.61656465      -0.34867081      -0.01146990       0.33590618
