72
Lattice="12.39778545 0.0 0.0 -6.19889272 10.73679715 0.0 0.0 0.0 13.44794642" Properties=species:S:1:pos:R:3:forces:R:3 ref_energy_eV=-267.15670122 ref_gap_eV=2.2052 energy=-240.41390802 stress="-0.008181626919168686 -0.0007296245213067087 -0.00044239855381617113 -0.0007296245213067087 -0.003053884713132871 -0.0005013205033530846 -0.00044239855381617113 -0.0005013205033530846 -0.009271077805755984" free_energy=-240.41390802 pbc="T T T"
Cd      -0.00765303       2.36894287      13.44369889       0.32091434      -0.49166775      -1.20174491
Cd       4.18954409       2.44862773       0.13608878      -0.94822225       0.04312894       0.29720685
Cd       8.27009968       2.38656915      13.44686803      -0.38522673       0.06934184       0.20505179
Cd      -2.05747913       5.99374110      13.44068722      -0.75445960       0.13660138       0.43821670
Cd       2.11903699       5.90901811      13.41044279      -0.57299431      -0.04015436      -0.00690660
Cd       6.11026772       5.97699234       0.16434238       0.44903509       0.54577352      -1.13376750
Cd      -4.08636023       9.56514663      13.38686746      -0.10224677       0.87037260       0.16435829
Cd      -0.01326060       9.49928454      13.25396410      -0.03514239      -0.01532821       0.64332742
Cd       4.05518204       9.68134583      13.44091664       0.25974842      -0.68569002      -0.12664576
Cd      -0.08497975       2.30992184       6.91829657       0.31753816      -0.04258309      -2.98875903
Cd       3.99070661       2.22623677       6.71116579       1.83824053       1.16329758       0.58500551
Cd       8.27635380       2.47086578       6.77587179       0.33793098       0.07764191      -0.07491438
Cd      -2.06426723       5.97519747       6.69876503      -0.26683257       0.19203699       0.19972535
Cd       2.07633983       5.97942927       6.73478388      -0.10425800      -1.01608465       0.21770271
Cd       6.00874783       6.04515017       6.60901626       2.32436292      -0.00239163       1.40759393
Cd      -4.14391255       9.39463029       6.71918440       0.41113096       0.63872380       0.12245440
Cd       0.13173267       9.42953154       6.65325503      -1.09364545       1.45381127       0.48151420
Cd       4.19516903       9.41542414       6.79033546      -0.59538167       0.42403437      -0.37807252
Cd       2.03819760       1.08249323       3.41458206      -0.33786664      -0.04081731      -1.40702446
Cd       6.14541897       1.15818905       3.32290795      -0.14752828      -0.54230453       0.81962094
Cd      10.47467897       1.21579379       3.48053496      -0.60965135       0.32109632      -0.90356606
Cd       0.14241448       4.89462151       3.43461479      -0.37531298      -0.35146740      -0.05651372
Cd       4.16522249       4.75189125       3.40188115       0.07207925      -0.33203040       0.26427045
Cd       8.23299038       4.77849586       3.35106324      -0.06064757      -0.05865361      -0.26165595
Cd      -2.01518291       8.57252190       3.31315644      -0.71321259      -1.06200044       0.34937685
Cd       2.06639253       8.35139187       3.36263345       0.33178578       0.64109091      -0.37177158
Cd       6.12379128       8.33051041       3.34162130       0.17061303       1.25944271       0.24880411
Cd       2.25377129       1.10774145      10.16207573      -0.68084519       0.79471623      -0.25850066
Cd       6.17598397       1.21215111      10.08292824       0.30274731      -0.32435102       0.34368058
Cd      10.18902891       1.27540792      10.10727629       0.87368807      -0.51453896       0.01877214
Cd       0.12383286       4.70391570      10.10466537      -0.55273552      -0.24786642      -0.00310333
Cd       4.17388959       4.80139787      10.12908106       0.07983822      -0.14566277      -0.35184580
Cd       8.29692545       4.89030403      10.11842074       0.44485003      -0.51242254       0.17161435
Cd      -2.21221490       8.51462984      10.13322034       0.95074450      -0.91623796      -0.24157445
Cd       2.06515498       8.35466208      10.08664929      -0.14175046       0.05977823      -0.07819432
Cd       6.18337733       8.38172869      10.18689149       0.10665939      -0.01341657       0.26260746
S       -0.06229199       2.36276181       2.31755870       0.75122070       0.42567162       2.27125417
S        4.14784228       2.33796292       2.64405037      -0.88598568       0.48817628      -0.25813270
S        8.04857183       2.33194505       2.57463799       1.74559692       0.79252586      -0.56003706
S       -2.05073585       5.97282432       2.56469404       0.12383095       0.19077198       0.03916928
S        2.24645864       6.04677283       2.52120445      -0.72356475      -0.46832284      -0.26830585
S        6.03341843       6.14144550       2.52592334       0.68271399      -1.57002824       0.63757210
S       -4.15029065       9.38960987       2.38976194      -0.19587777       0.70427201       0.91629116
S       -0.00825376       9.53110604       2.53440617       0.94126191       0.21066427      -0.78311134
S        4.21671167       9.69588904       2.43160711      -0.67319095      -0.56479444       0.89588912
S       -0.05461386       2.29101627       9.13033247       0.54887539      -0.01904734       3.50621842
S        4.15843960       2.32493929       9.24790598      -0.06105980       0.93008938      -0.28657984
S        8.26169919       2.40153367       9.29439392      -0.71227077       0.58380527      -0.11608719
S       -1.99672447       5.89822408       9.28939007       0.05791559       0.72025196      -0.10057684
S        2.06660651       5.96861313       9.24697296       0.45025758      -0.07834461       0.27249422
S        6.29311429       5.98917270       9.35805583      -0.90900316       0.38808553      -0.78456839
S       -4.14092549       9.64171674       9.25641652      -0.79233292      -0.75675108      -0.63001937
S       -0.00303590       9.53736495       9.20338857      -0.10593929       0.01729589       0.26661238
S        4.13263782       9.54163970       9.25834293      -0.03661250       0.13836441       0.21457185
S        2.22061980       1.14028501       5.77680301      -2.18873380      -0.90217059       0.65080407
S        6.26884128       1.41657522       5.90037592      -0.58295778      -1.20693938      -0.08233823
S       10.33628348       1.18315027       5.85472835      -0.18011878      -0.44853746       0.99793662
S       -0.02825424       4.70429256       6.05653361       0.46828661      -0.03339964      -0.86677587
S        4.21076557       4.89433022       5.94305607      -2.23787890      -1.92389024      -0.61628481
S        8.23452033       4.81631182       5.86033224      -0.09930603       0.35722342       0.29580064
S       -2.03176476       8.41988705       5.86439728      -0.01928796      -0.35751444      -0.01052936
S        1.92450960       8.17688338       5.84034536       1.65230167       0.77669539      -0.35769720
S        6.22611827       8.30329327       5.90454895      -0.14287121       0.86074967      -0.57121209
S        2.12732764       1.22924785      12.56121949      -0.17903157       0.29959489       0.85352588
S        5.98455126       1.15968747      12.73705314       1.59082501      -0.09560895      -0.99297651
S       10.33510328       1.18927229      12.60554890      -0.37664931       0.69584966      -0.38145977
S       -0.20764939       4.66919988      12.65275967       1.44261574       0.55805122      -0.60489137
S        4.18833580       4.73718871      12.64485913      -0.35114123       0.21749615      -0.16822835
S        8.16556905       4.83278915      12.64368096       0.16196359      -0.17209494       0.27179079
S       -2.15317863       8.39161857      12.63028828       0.80622884      -0.63479078      -0.32814248
S        2.08746281       8.35497280      12.61725520      -0.03470107      -0.34705685      -0.04117877
S        6.24599464       8.55557472      12.75094729      -1.04932589      -1.11156198      -0.67714031
