  72  72   0   0
  0.2486236E+02  0.1239779E-08  0.1239779E-08  0.1344795E-08  0.5000000E-15
  1.000000000000000E-004
  CAR 
 unknown system                          
      9.33254253    -14.23397114  301      1.01061739      1.00000000
    -14.234  0.0000E+00  0.0000E+00
    -14.155  0.0000E+00  0.0000E+00
    -14.077  0.0000E+00  0.0000E+00
    -13.998  0.0000E+00  0.0000E+00
    -13.920  0.0000E+00  0.0000E+00
    -13.841  0.0000E+00  0.0000E+00
    -13.763  0.0000E+00  0.0000E+00
    -13.684  0.0000E+00  0.0000E+00
    -13.606  0.0000E+00  0.0000E+00
    -13.527  0.0000E+00  0.0000E+00
    -13.448  0.8480E-14  0.6661E-15
    -13.370  0.5976E-07  0.4694E-08
    -13.291  0.3528E-02  0.2771E-03
    -13.213  0.2000E+01  0.1574E+00
    -13.134  0.1875E+02  0.1630E+01
    -13.056  0.2044E+02  0.3236E+01
    -12.977  0.3035E+02  0.5620E+01
    -12.899  0.3536E+02  0.8398E+01
    -12.820  0.4481E+02  0.1192E+02
    -12.741  0.7027E+02  0.1744E+02
    -12.663  0.7100E+02  0.2302E+02
    -12.584  0.6783E+02  0.2834E+02
    -12.506  0.8782E+02  0.3524E+02
    -12.427  0.7904E+02  0.4145E+02
    -12.349  0.8461E+02  0.4810E+02
    -12.270  0.5430E+02  0.5236E+02
    -12.192  0.4589E+02  0.5597E+02
    -12.113  0.4497E+02  0.5950E+02
    -12.034  0.5035E+02  0.6346E+02
    -11.956  0.4735E+02  0.6718E+02
    -11.877  0.1123E+02  0.6806E+02
    -11.799  0.1582E+02  0.6930E+02
    -11.720  0.1120E+02  0.7018E+02
    -11.642  0.1855E+02  0.7164E+02
    -11.563  0.4592E+01  0.7200E+02
    -11.485  0.2205E-01  0.7200E+02
    -11.406  0.1092E-05  0.7200E+02
    -11.327  0.4523E-12  0.7200E+02
    -11.249  0.0000E+00  0.7200E+02
    -11.170  0.0000E+00  0.7200E+02
    -11.092  0.0000E+00  0.7200E+02
    -11.013  0.0000E+00  0.7200E+02
    -10.935  0.0000E+00  0.7200E+02
    -10.856  0.0000E+00  0.7200E+02
    -10.778  0.0000E+00  0.7200E+02
    -10.699  0.0000E+00  0.7200E+02
    -10.620  0.0000E+00  0.7200E+02
    -10.542  0.0000E+00  0.7200E+02
    -10.463  0.0000E+00  0.7200E+02
    -10.385  0.0000E+00  0.7200E+02
    -10.306  0.0000E+00  0.7200E+02
    -10.228  0.0000E+00  0.7200E+02
    -10.149  0.0000E+00  0.7200E+02
    -10.071  0.0000E+00  0.7200E+02
     -9.992  0.0000E+00  0.7200E+02
     -9.913  0.0000E+00  0.7200E+02
     -9.835  0.0000E+00  0.7200E+02
     -9.756  0.0000E+00  0.7200E+02
     -9.678  0.0000E+00  0.7200E+02
     -9.599  0.0000E+00  0.7200E+02
     -9.521  0.0000E+00  0.7200E+02
     -9.442  0.0000E+00  0.7200E+02
     -9.364  0.0000E+00  0.7200E+02
     -9.285  0.0000E+00  0.7200E+02
     -9.206  0.0000E+00  0.7200E+02
     -9.128  0.0000E+00  0.7200E+02
     -9.049  0.0000E+00  0.7200E+02
     -8.971  0.0000E+00  0.7200E+02
     -8.892  0.0000E+00  0.7200E+02
     -8.814  0.0000E+00  0.7200E+02
     -8.735  0.2827E-14  0.7200E+02
     -8.657  0.3119E-07  0.7200E+02
     -8.578  0.2626E-02  0.7200E+02
     -8.499  0.2314E+01  0.7218E+02
     -8.421  0.4060E+02  0.7537E+02
     -8.342  0.9217E+02  0.8261E+02
     -8.264  0.1844E+03  0.9710E+02
     -8.185  0.2837E+03  0.1194E+03
     -8.107  0.3787E+03  0.1491E+03
     -8.028  0.4275E+03  0.1827E+03
     -7.950  0.4426E+03  0.2175E+03
     -7.871  0.5438E+03  0.2602E+03
     -7.792  0.5138E+03  0.3006E+03
     -7.714  0.4219E+03  0.3337E+03
     -7.635  0.3050E+03  0.3577E+03
     -7.557  0.1804E+03  0.3718E+03
     -7.478  0.2167E+03  0.3888E+03
     -7.400  0.1474E+03  0.4004E+03
     -7.321  0.3334E+02  0.4031E+03
     -7.243  0.2461E+02  0.4050E+03
     -7.164  0.1020E+03  0.4130E+03
     -7.085  0.1379E+03  0.4238E+03
     -7.007  0.7837E+02  0.4300E+03
     -6.928  0.2506E+02  0.4320E+03
     -6.850  0.5872E+00  0.4320E+03
     -6.771  0.2112E-03  0.4320E+03
     -6.693  0.7397E-09  0.4320E+03
     -6.614  0.0000E+00  0.4320E+03
     -6.536  0.0000E+00  0.4320E+03
     -6.457  0.0000E+00  0.4320E+03
     -6.378  0.0000E+00  0.4320E+03
     -6.300  0.0000E+00  0.4320E+03
     -6.221  0.0000E+00  0.4320E+03
     -6.143  0.0000E+00  0.4320E+03
     -6.064  0.0000E+00  0.4320E+03
     -5.986  0.0000E+00  0.4320E+03
     -5.907  0.0000E+00  0.4320E+03
     -5.829  0.0000E+00  0.4320E+03
     -5.750  0.0000E+00  0.4320E+03
     -5.671  0.0000E+00  0.4320E+03
     -5.593  0.0000E+00  0.4320E+03
     -5.514  0.0000E+00  0.4320E+03
     -5.436  0.0000E+00  0.4320E+03
     -5.357  0.0000E+00  0.4320E+03
     -5.279  0.0000E+00  0.4320E+03
     -5.200  0.0000E+00  0.4320E+03
     -5.122  0.0000E+00  0.4320E+03
     -5.043  0.0000E+00  0.4320E+03
     -4.964  0.0000E+00  0.4320E+03
     -4.886  0.0000E+00  0.4320E+03
     -4.807  0.0000E+00  0.4320E+03
     -4.729  0.0000E+00  0.4320E+03
     -4.650  0.0000E+00  0.4320E+03
     -4.572  0.0000E+00  0.4320E+03
     -4.493  0.0000E+00  0.4320E+03
     -4.415  0.0000E+00  0.4320E+03
     -4.336  0.2388E-12  0.4320E+03
     -4.257  0.6892E-06  0.4320E+03
     -4.179  0.1659E-01  0.4320E+03
     -4.100  0.4064E+01  0.4323E+03
     -4.022  0.1859E+02  0.4338E+03
     -3.943  0.2855E+01  0.4340E+03
     -3.865  0.7349E+01  0.4346E+03
     -3.786  0.1866E+02  0.4360E+03
     -3.708  0.3230E+02  0.4386E+03
     -3.629  0.4192E+02  0.4419E+03
     -3.550  0.6933E+02  0.4473E+03
     -3.472  0.4793E+02  0.4511E+03
     -3.393  0.5189E+02  0.4552E+03
     -3.315  0.1780E+02  0.4566E+03
     -3.236  0.6059E+02  0.4613E+03
     -3.158  0.8155E+02  0.4677E+03
     -3.079  0.5844E+02  0.4723E+03
     -3.001  0.7135E+02  0.4779E+03
     -2.922  0.5935E+02  0.4826E+03
     -2.843  0.3918E+02  0.4857E+03
     -2.765  0.4954E+01  0.4861E+03
     -2.686  0.2467E+02  0.4880E+03
     -2.608  0.4289E+02  0.4914E+03
     -2.529  0.4745E+02  0.4951E+03
     -2.451  0.4943E+02  0.4990E+03
     -2.372  0.1634E+02  0.5003E+03
     -2.294  0.1886E+02  0.5017E+03
     -2.215  0.4469E+01  0.5021E+03
     -2.136  0.2466E+02  0.5040E+03
     -2.058  0.6203E+02  0.5089E+03
     -1.979  0.6772E+02  0.5142E+03
     -1.901  0.8303E+02  0.5207E+03
     -1.822  0.4891E+02  0.5246E+03
     -1.744  0.1748E+02  0.5260E+03
     -1.665  0.5666E+00  0.5260E+03
     -1.587  0.2970E-03  0.5260E+03
     -1.508  0.8128E-01  0.5260E+03
     -1.429  0.1037E+02  0.5268E+03
     -1.351  0.4428E+02  0.5303E+03
     -1.272  0.3252E+02  0.5329E+03
     -1.194  0.6507E+02  0.5380E+03
     -1.115  0.6323E+02  0.5429E+03
     -1.037  0.4896E+02  0.5468E+03
     -0.958  0.5459E+02  0.5511E+03
     -0.880  0.8686E+02  0.5579E+03
     -0.801  0.8456E+02  0.5645E+03
     -0.723  0.7855E+02  0.5707E+03
     -0.644  0.8212E+02  0.5772E+03
     -0.565  0.1017E+03  0.5851E+03
     -0.487  0.7657E+02  0.5912E+03
     -0.408  0.7291E+02  0.5969E+03
     -0.330  0.6521E+02  0.6020E+03
     -0.251  0.7692E+02  0.6080E+03
     -0.173  0.6088E+02  0.6128E+03
     -0.094  0.4986E+02  0.6167E+03
     -0.016  0.6450E+02  0.6218E+03
      0.063  0.6095E+02  0.6266E+03
      0.142  0.4183E+02  0.6299E+03
      0.220  0.3694E+02  0.6328E+03
      0.299  0.4906E+02  0.6366E+03
      0.377  0.5259E+02  0.6408E+03
      0.456  0.1529E+02  0.6420E+03
      0.534  0.3196E+00  0.6420E+03
      0.613  0.3300E+00  0.6420E+03
      0.691  0.2392E+02  0.6439E+03
      0.770  0.4857E+02  0.6477E+03
      0.849  0.3554E+01  0.6480E+03
      0.927  0.4572E-02  0.6480E+03
      1.006  0.6270E-07  0.6480E+03
      1.084  0.5653E-14  0.6480E+03
      1.163  0.0000E+00  0.6480E+03
      1.241  0.0000E+00  0.6480E+03
      1.320  0.0000E+00  0.6480E+03
      1.398  0.0000E+00  0.6480E+03
      1.477  0.0000E+00  0.6480E+03
      1.556  0.0000E+00  0.6480E+03
      1.634  0.0000E+00  0.6480E+03
      1.713  0.0000E+00  0.6480E+03
      1.791  0.0000E+00  0.6480E+03
      1.870  0.0000E+00  0.6480E+03
      1.948  0.0000E+00  0.6480E+03
      2.027  0.0000E+00  0.6480E+03
      2.105  0.0000E+00  0.6480E+03
      2.184  0.0000E+00  0.6480E+03
      2.263  0.0000E+00  0.6480E+03
      2.341  0.0000E+00  0.6480E+03
      2.420  0.0000E+00  0.6480E+03
      2.498  0.0000E+00  0.6480E+03
      2.577  0.0000E+00  0.6480E+03
      2.655  0.8476E-11  0.6480E+03
      2.734  0.8772E-05  0.6480E+03
      2.812  0.7760E-01  0.6480E+03
      2.891  0.7593E+01  0.6486E+03
      2.970  0.1666E+02  0.6499E+03
      3.048  0.1131E+01  0.6500E+03
      3.127  0.1113E-02  0.6500E+03
      3.205  0.1018E-07  0.6500E+03
      3.284  0.0000E+00  0.6500E+03
      3.362  0.0000E+00  0.6500E+03
      3.441  0.0000E+00  0.6500E+03
      3.519  0.0000E+00  0.6500E+03
      3.598  0.0000E+00  0.6500E+03
      3.677  0.0000E+00  0.6500E+03
      3.755  0.0000E+00  0.6500E+03
      3.834  0.0000E+00  0.6500E+03
      3.912  0.0000E+00  0.6500E+03
      3.991  0.0000E+00  0.6500E+03
      4.069  0.0000E+00  0.6500E+03
      4.148  0.1413E-14  0.6500E+03
      4.226  0.1165E-07  0.6500E+03
      4.305  0.1216E-02  0.6500E+03
      4.384  0.1183E+01  0.6501E+03
      4.462  0.1688E+02  0.6514E+03
      4.541  0.1657E+02  0.6527E+03
      4.619  0.3321E+02  0.6553E+03
      4.698  0.8465E+01  0.6560E+03
      4.776  0.7441E-01  0.6560E+03
      4.855  0.2626E+00  0.6560E+03
      4.933  0.1167E+02  0.6569E+03
      5.012  0.2298E+02  0.6587E+03
      5.091  0.2933E+02  0.6610E+03
      5.169  0.5010E+02  0.6650E+03
      5.248  0.4750E+02  0.6687E+03
      5.326  0.6302E+02  0.6737E+03
      5.405  0.7128E+02  0.6793E+03
      5.483  0.7915E+02  0.6855E+03
      5.562  0.4319E+02  0.6889E+03
      5.640  0.6610E+02  0.6941E+03
      5.719  0.3265E+02  0.6966E+03
      5.798  0.5086E+02  0.7006E+03
      5.876  0.2716E+02  0.7028E+03
      5.955  0.1511E+02  0.7039E+03
      6.033  0.1155E+01  0.7040E+03
      6.112  0.1996E+02  0.7056E+03
      6.190  0.6216E+02  0.7105E+03
      6.269  0.4658E+02  0.7141E+03
      6.347  0.2288E+02  0.7159E+03
      6.426  0.7097E+00  0.7160E+03
      6.505  0.3636E-03  0.7160E+03
      6.583  0.4772E-03  0.7160E+03
      6.662  0.8132E+00  0.7161E+03
      6.740  0.2334E+02  0.7179E+03
      6.819  0.3264E+02  0.7205E+03
      6.897  0.3183E+02  0.7230E+03
      6.976  0.5185E+02  0.7270E+03
      7.054  0.5176E+02  0.7311E+03
      7.133  0.6781E+02  0.7364E+03
      7.212  0.5408E+02  0.7407E+03
      7.290  0.6401E+02  0.7457E+03
      7.369  0.5254E+02  0.7498E+03
      7.447  0.6192E+02  0.7547E+03
      7.526  0.4263E+02  0.7580E+03
      7.604  0.2342E+02  0.7599E+03
      7.683  0.1120E+02  0.7608E+03
      7.761  0.4290E+02  0.7641E+03
      7.840  0.3771E+02  0.7671E+03
      7.919  0.4060E+02  0.7703E+03
      7.997  0.3994E+02  0.7734E+03
      8.076  0.4346E+02  0.7768E+03
      8.154  0.3851E+02  0.7799E+03
      8.233  0.3096E+02  0.7823E+03
      8.311  0.1969E+02  0.7838E+03
      8.390  0.2002E+01  0.7840E+03
      8.468  0.3528E-02  0.7840E+03
      8.547  0.5976E-07  0.7840E+03
      8.626  0.8480E-14  0.7840E+03
      8.704  0.0000E+00  0.7840E+03
      8.783  0.0000E+00  0.7840E+03
      8.861  0.0000E+00  0.7840E+03
      8.940  0.0000E+00  0.7840E+03
      9.018  0.0000E+00  0.7840E+03
      9.097  0.0000E+00  0.7840E+03
      9.175  0.0000E+00  0.7840E+03
      9.254  0.0000E+00  0.7840E+03
      9.333  0.0000E+00  0.7840E+03
