       N       E                     dE             d eps       ncg     rms          rms(c)
DAV:   1    -0.368256891046E+05   -0.36826E+05   -0.28577E+05   800   0.125E+03
DAV:   2    -0.410076425343E+05   -0.41820E+04   -0.40675E+04   880   0.352E+02
DAV:   3    -0.412971492740E+05   -0.28951E+03   -0.28697E+03   888   0.864E+01
DAV:   4    -0.413031516719E+05   -0.60024E+01   -0.59713E+01   888   0.114E+01
DAV:   5    -0.287767139970E+03    0.41015E+05   -0.32387E+02   800   0.538E+01    0.591E+01
DAV:   6    -0.267173619974E+03    0.20594E+02   -0.52963E+01   832   0.129E+01    0.414E+01
DAV:   7    -0.267190019984E+03   -0.16400E-01   -0.19680E+01   832   0.579E+00    0.305E+01
DAV:   8    -0.267564288300E+03   -0.37427E+00   -0.14763E+00   864   0.197E+00    0.181E+01
DAV:   9    -0.267402369545E+03    0.16192E+00   -0.11376E-01   840   0.593E-01    0.982E+00
DAV:  10    -0.267358880340E+03    0.43489E-01   -0.76136E-02   848   0.392E-01    0.504E+00
DAV:  11    -0.267351392778E+03    0.74876E-02   -0.16156E-02   848   0.227E-01    0.268E+00
DAV:  12    -0.267349522049E+03    0.18707E-02   -0.38993E-03   848   0.146E-01    0.148E+00
DAV:  13    -0.267349511621E+03    0.10428E-04   -0.19204E-03   840   0.100E-01    0.829E-01
DAV:  14    -0.267349927882E+03   -0.41626E-03   -0.81238E-04   856   0.638E-02    0.469E-01
DAV:  15    -0.267350259292E+03   -0.33141E-03   -0.27535E-04   840   0.403E-02    0.274E-01
DAV:  16    -0.267350460567E+03   -0.20128E-03   -0.11353E-04   848   0.269E-02    0.167E-01
DAV:  17    -0.267350573762E+03   -0.11319E-03   -0.54689E-05   840   0.189E-02    0.106E-01
DAV:  18    -0.267350635404E+03   -0.61643E-04   -0.27851E-05   856   0.135E-02    0.693E-02
DAV:  19    -0.267350668229E+03   -0.32825E-04   -0.13857E-05   792   0.968E-03    0.462E-02
DAV:  20    -0.267350685441E+03   -0.17213E-04   -0.69428E-06   664   0.698E-03    0.307E-02
DAV:  21    -0.267350694342E+03   -0.89009E-05   -0.35111E-06   624   0.513E-03    0.205E-02
DAV:  22    -0.267350698921E+03   -0.45786E-05   -0.16841E-06   592   0.370E-03    0.141E-02
DAV:  23    -0.267350701258E+03   -0.23375E-05   -0.94905E-07   536   0.279E-03    0.984E-03
DAV:  24    -0.267350702469E+03   -0.12108E-05   -0.56254E-07   528   0.202E-03    0.679E-03
DAV:  25    -0.267350703084E+03   -0.61534E-06   -0.25480E-07   496   0.150E-03
   1 F= -.26735070E+03 E0= -.26735070E+03  d E =-.550268E-16
