 vasp.6.4.2 20Jul23 (build Sep 17 2025 15:35:10) complex                        
  
 executed on             LinuxIFC date 2025.09.27  10:55:13
 running    8 mpi-ranks, on    1 nodes
 distrk:  each k-point on    8 cores,    1 groups
 distr:  one band on NCORE=   1 cores,    8 groups


--------------------------------------------------------------------------------------------------------


 INCAR:
   YSTEM = CdS Calculation
   PREC = Accurate
   ENCUT = 400
   ISTART = 0
   ICHARG = 2
   ISMEAR = 0
   SIGMA = 0.05
   EDIFF = 1E-6
   NELM = 100
   LREAL = .FALSE.
   LHFCALC = .TRUE.
   GGA = PE
   HFSCREEN = 0.2
   LWAVE = .FALSE.
   LCHARG = .FALSE.

 POTCAR:    PAW_PBE Cd 06Sep2000                  
 POTCAR:    PAW_PBE S 06Sep2000                   
 -----------------------------------------------------------------------------
|                                                                             |
|           W    W    AA    RRRRR   N    N  II  N    N   GGGG   !!!           |
|           W    W   A  A   R    R  NN   N  II  NN   N  G    G  !!!           |
|           W    W  A    A  R    R  N N  N  II  N N  N  G       !!!           |
|           W WW W  AAAAAA  RRRRR   N  N N  II  N  N N  G  GGG   !            |
|           WW  WW  A    A  R   R   N   NN  II  N   NN  G    G                |
|           W    W  A    A  R    R  N    N  II  N    N   GGGG   !!!           |
|                                                                             |
|     For optimal performance we recommend to set                             |
|       NCORE = 2 up to number-of-cores-per-socket                            |
|     NCORE specifies how many cores store one orbital (NPAR=cpu/NCORE).      |
|     This setting can greatly improve the performance of VASP for DFT.       |
|     The default, NCORE=1 might be grossly inefficient on modern             |
|     multi-core architectures or massively parallel machines. Do your        |
|     own testing! More info at https://www.vasp.at/wiki/index.php/NCORE      |
|     Unfortunately you need to use the default for GW and RPA                |
|     calculations (for HF NCORE is supported but not extensively tested      |
|     yet).                                                                   |
|                                                                             |
 -----------------------------------------------------------------------------

 POTCAR:    PAW_PBE Cd 06Sep2000                  
   SHA256 =  8b7ca71966beae5276c8bb910adb3ecc013a3354c27473914c94cd54c83be4f7 Cd/POTCAR             
   COPYR  = (c) Copyright 06Sep2000 Georg Kresse                                                    
   COPYR  = This file is part of the software VASP. Any use, copying, and all other rights are regul
   COPYR  = If you do not have a valid VASP license, you may not use, copy or distribute this file. 
   VRHFIN =Cd : s2 d10                                                                              
   LEXCH  = PE                                                                                      
   EATOM  =  1293.1815 eV,   95.0462 Ry                                                             
                                                                                                    
   TITEL  = PAW_PBE Cd 06Sep2000                                                                    
   LULTRA =        F    use ultrasoft PP ?                                                          
   IUNSCR =        1    unscreen: 0-lin 1-nonlin 2-no                                               
   RPACOR =    2.000    partial core radius                                                         
   POMASS =  112.411; ZVAL   =   12.000    mass and valenz                                          
   RCORE  =    2.300    outmost cutoff radius                                                       
   RWIGS  =    2.980; RWIGS  =    1.577    wigner-seitz radius (au A)                               
   ENMAX  =  274.336; ENMIN  =  205.752 eV                                                          
   RCLOC  =    2.054    cutoff for local pot                                                        
   LCOR   =        T    correct aug charges                                                         
   LPAW   =        T    paw PP                                                                      
   EAUG   =  456.106                                                                                
   DEXC   =    0.000                                                                                
   RMAX   =    2.358    core radius for proj-oper                                                   
   RAUG   =    1.300    factor for augmentation sphere                                              
   RDEP   =    2.450    radius for radial grids                                                     
   RDEPT  =    1.955    core radius for aug-charge                                                  
                                                                                                    
   Atomic configuration                                                                             
   12 entries                                                                                       
     n  l   j            E        occ.                                                              
     1  0  0.50    -26519.7817   2.0000                                                             
     2  0  0.50     -3936.9612   2.0000                                                             
     2  1  1.50     -3532.2230   6.0000                                                             
     3  0  0.50      -733.7908   2.0000                                                             
     3  1  1.50      -601.0792   6.0000                                                             
     3  2  2.50      -393.5307  10.0000                                                             
     4  0  0.50      -105.8977   2.0000                                                             
     4  1  1.50       -66.9488   6.0000                                                             
     4  2  2.50       -11.7331  10.0000                                                             
     5  0  0.50        -5.6592   2.0000                                                             
     5  1  0.50        -1.3606   0.0000                                                             
     4  3  2.50        -1.3606   0.0000                                                             
   Description                                                                                      
     l       E           TYP  RCUT    TYP  RCUT                                                     
     2    -11.7331479     23  2.300                                                                 
     2    -13.0937305     23  2.300                                                                 
     0     -5.6591502     23  2.300                                                                 
     0     -1.5561433     23  2.300                                                                 
     1     -2.7211652     23  2.300                                                                 
     1      8.3548275     23  2.300                                                                 
  local pseudopotential read in
  partial core-charges read in
  partial kinetic energy density read in
  atomic valenz-charges read in
  non local Contribution for L=           2  read in
    real space projection operators read in
  non local Contribution for L=           2  read in
    real space projection operators read in
  non local Contribution for L=           0  read in
    real space projection operators read in
  non local Contribution for L=           0  read in
    real space projection operators read in
  non local Contribution for L=           1  read in
    real space projection operators read in
  non local Contribution for L=           1  read in
    real space projection operators read in
    PAW grid and wavefunctions read in
 
   number of l-projection  operators is LMAX  =           6
   number of lm-projection operators is LMMAX =          18
 
 POTCAR:    PAW_PBE S 06Sep2000                   
   SHA256 =  0fc7481fb0695f01bdc6462160264c5c84044ae9ec85a907d398b887a2bc3132 S/POTCAR              
   COPYR  = (c) Copyright 06Sep2000 Georg Kresse                                                    
   COPYR  = This file is part of the software VASP. Any use, copying, and all other rights are regul
   COPYR  = If you do not have a valid VASP license, you may not use, copy or distribute this file. 
   VRHFIN =S : s2p4                                                                                 
   LEXCH  = PE                                                                                      
   EATOM  =   276.8230 eV,   20.3459 Ry                                                             
                                                                                                    
   TITEL  = PAW_PBE S 06Sep2000                                                                     
   LULTRA =        F    use ultrasoft PP ?                                                          
   IUNSCR =        1    unscreen: 0-lin 1-nonlin 2-no                                               
   RPACOR =    1.500    partial core radius                                                         
   POMASS =   32.066; ZVAL   =    6.000    mass and valenz                                          
   RCORE  =    1.900    outmost cutoff radius                                                       
   RWIGS  =    2.200; RWIGS  =    1.164    wigner-seitz radius (au A)                               
   ENMAX  =  258.689; ENMIN  =  194.016 eV                                                          
   ICORE  =        2    local potential                                                             
   LCOR   =        T    correct aug charges                                                         
   LPAW   =        T    paw PP                                                                      
   EAUG   =  335.092                                                                                
   DEXC   =    0.000                                                                                
   RMAX   =    1.942    core radius for proj-oper                                                   
   RAUG   =    1.300    factor for augmentation sphere                                              
   RDEP   =    1.954    radius for radial grids                                                     
   RDEPT  =    1.744    core radius for aug-charge                                                  
                                                                                                    
   Atomic configuration                                                                             
    6 entries                                                                                       
     n  l   j            E        occ.                                                              
     1  0  0.50     -2405.8406   2.0000                                                             
     2  0  0.50      -211.7007   2.0000                                                             
     2  1  1.50      -156.4958   6.0000                                                             
     3  0  0.50       -17.2562   2.0000                                                             
     3  1  0.50        -7.0085   4.0000                                                             
     3  2  1.50        -6.8029   0.0000                                                             
   Description                                                                                      
     l       E           TYP  RCUT    TYP  RCUT                                                     
     0    -17.2561641     23  1.900                                                                 
     0    -15.8743224     23  1.900                                                                 
     1     -7.0085400     23  1.900                                                                 
     1     -2.7779785     23  1.900                                                                 
     2     -6.8029130     23  1.900                                                                 
  local pseudopotential read in
  partial core-charges read in
  partial kinetic energy density read in
  atomic valenz-charges read in
  non local Contribution for L=           0  read in
    real space projection operators read in
  non local Contribution for L=           0  read in
    real space projection operators read in
  non local Contribution for L=           1  read in
    real space projection operators read in
  non local Contribution for L=           1  read in
    real space projection operators read in
    PAW grid and wavefunctions read in
 
   number of l-projection  operators is LMAX  =           4
   number of lm-projection operators is LMMAX =           8
 
 -----------------------------------------------------------------------------
|                                                                             |
|               ----> ADVICE to this user running VASP <----                  |
|                                                                             |
|     You have a (more or less) 'large supercell' and for larger cells it     |
|     might be more efficient to use real-space projection operators.         |
|     Therefore, try LREAL= Auto in the INCAR file.                           |
|     Mind: For very accurate calculation, you might also keep the            |
|     reciprocal projection scheme (i.e. LREAL=.FALSE.).                      |
|                                                                             |
 -----------------------------------------------------------------------------

  PAW_PBE Cd 06Sep2000                  :
 energy of atom  1       EATOM=-1293.1815
 kinetic energy error for atom=    0.0223 (will be added to EATOM!!)
  PAW_PBE S 06Sep2000                   :
 energy of atom  2       EATOM= -276.8230
 kinetic energy error for atom=    0.0046 (will be added to EATOM!!)
 
 
 POSCAR: Cd S
  positions in cartesian coordinates
  No initial velocities read in
 exchange correlation table for  LEXCH =        8
   RHO(1)=    0.500       N(1)  =     2000
   RHO(2)=  100.500       N(2)  =     4000
 


--------------------------------------------------------------------------------------------------------


 ion  position               nearest neighbor table
   1  0.120  0.221  0.003-  64 2.43  37 2.50  66 2.59  67 2.66
   2  0.443  0.224  0.999-  64 2.50  68 2.55  65 2.62  38 2.72
   3  0.762  0.205  1.000-  65 2.45  39 2.54  66 2.61  69 2.73
   4  0.112  0.557  0.999-  70 2.40  67 2.41  69 2.54  40 2.57
   5  0.452  0.569  0.001-  41 2.34  71 2.38  67 2.58  68 2.67
   6  0.758  0.548  0.004-  68 2.19  42 2.59  72 2.67  69 2.69
   7  0.115  0.881  0.995-  70 2.38  64 2.54  43 2.58  72 2.64
   8  0.438  0.874  0.002-  71 2.38  65 2.45  44 2.50  70 2.63
   9  0.777  0.886  0.998-  71 2.50  72 2.57  45 2.58  66 2.63
  10  0.116  0.216  0.490-  57 2.33  58 2.39  55 2.39  46 2.67
  11  0.445  0.222  0.500-  55 2.46  56 2.48  47 2.54  59 2.62
  12  0.775  0.205  0.495-  56 2.44  57 2.44  48 2.63  60 2.73
  13  0.107  0.553  0.500-  49 2.43  60 2.49  61 2.52  58 2.54
  14  0.442  0.554  0.502-  50 2.47  58 2.55  59 2.67  62 2.74
  15  0.777  0.556  0.500-  59 2.42  60 2.43  51 2.46  63 2.62
  16  0.119  0.889  0.499-  61 2.26  52 2.50  55 2.51  63 2.57
  17  0.445  0.888  0.500-  62 2.48  56 2.57  53 2.60  61 2.69
  18  0.775  0.884  0.500-  62 2.42  63 2.54  54 2.54  57 2.74
  19  0.222  0.109  0.250-  43 2.50  37 2.55  55 2.61  38 2.62
  20  0.549  0.102  0.254-  39 2.50  44 2.51  38 2.51  56 2.54
  21  0.892  0.126  0.251-  39 2.47  37 2.51  57 2.51  45 2.74
  22  0.226  0.448  0.251-  37 2.56  40 2.57  41 2.61  58 2.67
  23  0.563  0.453  0.250-  59 2.43  38 2.43  42 2.44  41 2.67
  24  0.869  0.440  0.254-  42 2.37  60 2.55  39 2.56  40 2.62
  25  0.234  0.779  0.259-  44 2.35  61 2.52  40 2.67  43 2.70
  26  0.562  0.785  0.259-  62 2.34  45 2.48  41 2.58  44 2.63
  27  0.901  0.798  0.242-  45 2.38  43 2.38  63 2.54  42 2.66
  28  0.218  0.108  0.751-  52 2.46  46 2.50  47 2.58  64 2.58
  29  0.556  0.109  0.745-  47 2.51  48 2.54  53 2.63  65 2.72
  30  0.901  0.132  0.745-  46 2.38  48 2.44  66 2.48  54 2.72
  31  0.216  0.439  0.747-  46 2.49  50 2.56  49 2.62  67 2.64
  32  0.553  0.440  0.749-  47 2.49  50 2.53  68 2.59  51 2.62
  33  0.883  0.440  0.749-  48 2.39  69 2.50  49 2.57  51 2.59
  34  0.220  0.786  0.750-  52 2.31  53 2.47  70 2.49  49 2.62
  35  0.560  0.769  0.752-  54 2.49  50 2.51  53 2.58  71 2.61
  36  0.886  0.784  0.750-  72 2.32  54 2.43  51 2.52  52 2.78
  37  0.111  0.222  0.189-   1 2.50  21 2.51  19 2.55  22 2.56
  38  0.459  0.235  0.201-  23 2.43  20 2.51  19 2.62   2 2.72
  39  0.767  0.216  0.188-  21 2.47  20 2.50   3 2.54  24 2.56
  40  0.100  0.548  0.189-   4 2.57  22 2.57  24 2.62  25 2.67
  41  0.449  0.569  0.175-   5 2.34  26 2.58  22 2.61  23 2.67
  42  0.779  0.558  0.195-  24 2.37  23 2.44   6 2.59  27 2.66
  43  0.111  0.890  0.186-  27 2.38  19 2.50   7 2.58  25 2.70
  44  0.434  0.884  0.188-  25 2.35   8 2.50  20 2.51  26 2.63
  45  0.775  0.883  0.189-  27 2.38  26 2.48   9 2.58  21 2.74
  46  0.110  0.219  0.689-  30 2.38  31 2.49  28 2.50  10 2.67
  47  0.445  0.221  0.689-  32 2.49  29 2.51  11 2.54  28 2.58
  48  0.782  0.230  0.690-  33 2.39  30 2.44  29 2.54  12 2.63
  49  0.106  0.558  0.681-  13 2.43  33 2.57  31 2.62  34 2.62
  50  0.442  0.551  0.686-  14 2.47  35 2.51  32 2.53  31 2.56
  51  0.782  0.564  0.683-  15 2.46  36 2.52  33 2.59  32 2.62
  52  0.131  0.895  0.685-  34 2.31  28 2.46  16 2.50  36 2.78
  53  0.436  0.873  0.693-  34 2.47  35 2.58  17 2.60  29 2.63
  54  0.778  0.889  0.688-  36 2.43  35 2.49  18 2.54  30 2.72
  55  0.227  0.113  0.444-  10 2.39  11 2.46  16 2.51  19 2.61
  56  0.559  0.117  0.443-  12 2.44  11 2.48  20 2.54  17 2.57
  57  0.910  0.127  0.437-  10 2.33  12 2.44  21 2.51  18 2.74
  58  0.214  0.433  0.449-  10 2.39  13 2.54  14 2.55  22 2.67
  59  0.569  0.450  0.430-  15 2.42  23 2.43  11 2.62  14 2.67
  60  0.887  0.451  0.443-  15 2.43  13 2.49  24 2.55  12 2.73
  61  0.204  0.777  0.445-  16 2.26  13 2.52  25 2.52  17 2.69
  62  0.565  0.794  0.433-  26 2.34  18 2.42  17 2.48  14 2.74
  63  0.895  0.784  0.431-  18 2.54  27 2.54  16 2.57  15 2.62
  64  0.221  0.108  0.943-   1 2.43   2 2.50   7 2.54  28 2.58
  65  0.544  0.091  0.947-   8 2.45   3 2.45   2 2.62  29 2.72
  66  0.897  0.115  0.929-  30 2.48   1 2.59   3 2.61   9 2.63
  67  0.223  0.456  0.942-   4 2.41   5 2.58  31 2.64   1 2.66
  68  0.570  0.449  0.941-   6 2.19   2 2.55  32 2.59   5 2.67
  69  0.890  0.446  0.935-  33 2.50   4 2.54   6 2.69   3 2.73
  70  0.208  0.766  0.935-   7 2.38   4 2.40  34 2.49   8 2.63
  71  0.554  0.780  0.946-   5 2.38   8 2.38   9 2.50  35 2.61
  72  0.887  0.775  0.923-  36 2.32   9 2.57   7 2.64   6 2.67
 
  LATTYP: Found a hexagonal cell.
 ALAT       =    12.3977854500
 C/A-ratio  =     1.0847055286
  
  Lattice vectors:
  
 A1 = (  12.3977854500,   0.0000000000,   0.0000000000)
 A2 = (  -6.1988927200,  10.7367971500,   0.0000000000)
 A3 = (   0.0000000000,   0.0000000000,  13.4479464200)


Analysis of symmetry for initial positions (statically):
=====================================================================
 Subroutine PRICEL returns:
 Original cell was already a primitive cell.
 

 Routine SETGRP: Setting up the symmetry group for a 
 hexagonal supercell.


 Subroutine GETGRP returns: Found  1 space group operations
 (whereof  1 operations were pure point group operations)
 out of a pool of 24 trial point group operations.


The static configuration has the point symmetry C_1 .


Analysis of symmetry for dynamics (positions and initial velocities):
=====================================================================
 Subroutine PRICEL returns:
 Original cell was already a primitive cell.
 

 Routine SETGRP: Setting up the symmetry group for a 
 hexagonal supercell.


 Subroutine GETGRP returns: Found  1 space group operations
 (whereof  1 operations were pure point group operations)
 out of a pool of 24 trial point group operations.


The dynamic configuration has the point symmetry C_1 .


 Subroutine INISYM returns: Found  1 space group operations
 (whereof  1 operations are pure point group operations),
 and found     1 'primitive' translations


----------------------------------------------------------------------------------------

                                     Primitive cell                                     

  volume of cell :    1790.0899

  direct lattice vectors                    reciprocal lattice vectors
    12.397785450  0.000000000  0.000000000     0.080659567  0.046568822  0.000000000
    -6.198892720 10.736797150  0.000000000     0.000000000  0.093137645  0.000000000
     0.000000000  0.000000000 13.447946420     0.000000000  0.000000000  0.074360796

  length of vectors
    12.397785450 12.397785447 13.447946420     0.093137645  0.093137645  0.074360796

  position of ions in fractional coordinates (direct lattice)
     0.119726350  0.220569120  0.002955560
     0.442815400  0.224226110  0.999386300
     0.762233270  0.205190660  0.999541660
     0.112075060  0.557312230  0.998876280
     0.451996030  0.569073840  0.000500770
     0.758108580  0.548357580  0.003717860
     0.115127630  0.881165780  0.994773890
     0.438014290  0.873941510  0.002159530
     0.777368640  0.885889520  0.997802840
     0.115826970  0.216393540  0.490458840
     0.445413140  0.222337340  0.499547570
     0.775452670  0.205492370  0.495247270
     0.107324220  0.553399690  0.500217980
     0.441721400  0.553938450  0.502241800
     0.777385900  0.555962650  0.500084860
     0.118705650  0.889219480  0.498811930
     0.444811040  0.888425730  0.499844540
     0.774505790  0.884224700  0.499514300
     0.222211710  0.108978650  0.250247920
     0.549230720  0.102478510  0.254084660
     0.891981080  0.125656560  0.251192410
     0.225813690  0.447709970  0.250902470
     0.562905800  0.452840310  0.249992820
     0.869432110  0.439895060  0.253501750
     0.234376260  0.779461980  0.258997110
     0.561870640  0.784615960  0.259491390
     0.901018920  0.798061970  0.242304550
     0.218440040  0.107953610  0.751206260
     0.556390270  0.109263470  0.744848460
     0.901253080  0.132320990  0.744823370
     0.215907020  0.438785620  0.746705960
     0.553366210  0.440453120  0.749292460
     0.883244380  0.439799810  0.749190420
     0.219674531  0.785822660  0.750316230
     0.560398150  0.769326210  0.751747380
     0.885599680  0.783774510  0.750242890
     0.111298730  0.222437580  0.188587600
     0.458518030  0.234869160  0.200987010
     0.767057110  0.215896870  0.187953180
     0.099920920  0.547934540  0.189382100
     0.449303570  0.568962450  0.174810330
     0.779441610  0.557511700  0.195346750
     0.110941380  0.890136910  0.186267420
     0.434365290  0.884113760  0.187823220
     0.775468630  0.882726620  0.189308940
     0.110192360  0.218686160  0.689013680
     0.445178470  0.221003690  0.688771890
     0.782239340  0.229917690  0.689656220
     0.106171790  0.558121910  0.680724780
     0.442234340  0.551025840  0.686067820
     0.782203980  0.564456360  0.683104220
     0.131044630  0.895309670  0.684646210
     0.436338120  0.873268000  0.692747670
     0.777769830  0.888883130  0.688388770
     0.227136980  0.112822250  0.444064460
     0.559231829  0.116683910  0.442775960
     0.909936080  0.126956280  0.437387760
     0.214166080  0.432523670  0.449080150
     0.569229390  0.449814030  0.430205310
     0.886601630  0.450638140  0.442680450
     0.204415580  0.776599380  0.444702840
     0.565334821  0.794269190  0.433232370
     0.894878870  0.784371580  0.431120380
     0.220695210  0.108241380  0.943126640
     0.544050870  0.090942550  0.946907920
     0.897001760  0.115098600  0.929031750
     0.223307700  0.455903450  0.942269090
     0.569767750  0.449428600  0.941405250
     0.890032630  0.445968960  0.934681060
     0.208421681  0.765841840  0.934749660
     0.553789511  0.779905440  0.945626150
     0.887063390  0.775058960  0.922558480

  ion indices of the primitive-cell ions
   primitive index   ion index
                 1           1
                 2           2
                 3           3
                 4           4
                 5           5
                 6           6
                 7           7
                 8           8
                 9           9
                10          10
                11          11
                12          12
                13          13
                14          14
                15          15
                16          16
                17          17
                18          18
                19          19
                20          20
                21          21
                22          22
                23          23
                24          24
                25          25
                26          26
                27          27
                28          28
                29          29
                30          30
                31          31
                32          32
                33          33
                34          34
                35          35
                36          36
                37          37
                38          38
                39          39
                40          40
                41          41
                42          42
                43          43
                44          44
                45          45
                46          46
                47          47
                48          48
                49          49
                50          50
                51          51
                52          52
                53          53
                54          54
                55          55
                56          56
                57          57
                58          58
                59          59
                60          60
                61          61
                62          62
                63          63
                64          64
                65          65
                66          66
                67          67
                68          68
                69          69
                70          70
                71          71
                72          72

----------------------------------------------------------------------------------------

 
 
 KPOINTS: Automatic mesh                          

Automatic generation of k-mesh.
 Grid dimensions read from file:
 generate k-points for:    1    1    1

 Generating k-lattice:

  Cartesian coordinates                     Fractional coordinates (reciprocal lattice)
     0.080659567  0.046568822  0.000000000     1.000000000  0.000000000  0.000000000
     0.000000000  0.093137645  0.000000000     0.000000000  1.000000000  0.000000000
     0.000000000  0.000000000  0.074360796     0.000000000  0.000000000  1.000000000

  Length of vectors
     0.093137645  0.093137645  0.074360796

  Shift w.r.t. Gamma in fractional coordinates (k-lattice)
     0.000000000  0.000000000  0.000000000

 
 Subroutine IBZKPT returns following result:
 ===========================================
 
 Found      1 irreducible k-points:
 
 Following reciprocal coordinates:
            Coordinates               Weight
  0.000000  0.000000  0.000000      1.000000
 
 Following cartesian coordinates:
            Coordinates               Weight
  0.000000  0.000000  0.000000      1.000000
 
 
 Subroutine IBZKPT_HF returns following result:
 ==============================================
 
 Found      1 k-points in 1st BZ
 the following      1 k-points will be used (e.g. in the exchange kernel)
 Following reciprocal coordinates:   # in IRBZ
  0.000000  0.000000  0.000000    1.00000000   1 t-inv F


--------------------------------------------------------------------------------------------------------




 Dimension of arrays:
   k-points           NKPTS =      1   k-points in BZ     NKDIM =      1   number of bands    NBANDS=    392
   number of dos      NEDOS =    301   number of ions     NIONS =     72
   non local maximal  LDIM  =      6   non local SUM 2l+1 LMDIM =     18
   total plane-waves  NPLWV = 635040
   max r-space proj   IRMAX =      1   max aug-charges    IRDMAX=  15200
   dimension x,y,z NGX =    84 NGY =   84 NGZ =   90
   dimension x,y,z NGXF=   168 NGYF=  168 NGZF=  180
   support grid    NGXF=   168 NGYF=  168 NGZF=  180
   ions per type =              36  36
   NGX,Y,Z   is equivalent  to a cutoff of  11.26, 11.26, 11.13 a.u.
   NGXF,Y,Z  is equivalent  to a cutoff of  22.53, 22.53, 22.25 a.u.

 SYSTEM =  unknown system                          
 POSCAR =  Cd S                                    

 Startparameter for this run:
   NWRITE =      2    write-flag & timer
   PREC   = accura    normal or accurate (medium, high low for compatibility)
   ISTART =      0    job   : 0-new  1-cont  2-samecut
   ICHARG =      2    charge: 1-file 2-atom 10-const
   ISPIN  =      1    spin polarized calculation?
   LNONCOLLINEAR =      F non collinear calculations
   LSORBIT =      F    spin-orbit coupling
   INIWAV =      1    electr: 0-lowe 1-rand  2-diag
   LASPH  =      F    aspherical Exc in radial PAW
 Electronic Relaxation 1
   ENCUT  =  400.0 eV  29.40 Ry    5.42 a.u.  20.22 20.22 21.93*2*pi/ulx,y,z
   ENINI  =  400.0     initial cutoff
   ENAUG  =  456.1 eV  augmentation charge cutoff
   NELM   =    100;   NELMIN=  2; NELMDL= -5     # of ELM steps 
   EDIFF  = 0.1E-05   stopping-criterion for ELM
   LREAL  =      F    real-space projection
   NLSPLINE    = F    spline interpolate recip. space projectors
   LCOMPAT=      F    compatible to vasp.4.4
   GGA_COMPAT  = T    GGA compatible to vasp.4.4-vasp.4.6
   LMAXPAW     = -100 max onsite density
   LMAXMIX     =    2 max onsite mixed and CHGCAR
   VOSKOWN=      0    Vosko Wilk Nusair interpolation
   ROPT   =    0.00000   0.00000
 Ionic relaxation
   EDIFFG = 0.1E-04   stopping-criterion for IOM
   NSW    =      0    number of steps for IOM
   NBLOCK =      1;   KBLOCK =      1    inner block; outer block 
   IBRION =     -1    ionic relax: 0-MD 1-quasi-New 2-CG
   NFREE  =      0    steps in history (QN), initial steepest desc. (CG)
   ISIF   =      0    stress and relaxation
   IWAVPR =     10    prediction:  0-non 1-charg 2-wave 3-comb
   ISYM   =      3    0-nonsym 1-usesym 2-fastsym
   LCORR  =      T    Harris-Foulkes like correction to forces

   POTIM  = 0.5000    time-step for ionic-motion
   TEIN   =    0.0    initial temperature
   TEBEG  =    0.0;   TEEND  =   0.0 temperature during run
   SMASS  =  -3.00    Nose mass-parameter (am)
   estimated Nose-frequenzy (Omega)   =  0.10E-29 period in steps = 0.13E+47 mass=  -0.351E-26a.u.
   SCALEE = 1.0000    scale energy and forces
   NPACO  =    256;   APACO  = 10.0  distance and # of slots for P.C.
   PSTRESS=    0.0 pullay stress

  Mass of Ions in am
   POMASS = 112.41 32.07
  Ionic Valenz
   ZVAL   =  12.00  6.00
  Atomic Wigner-Seitz radii
   RWIGS  =  -1.00 -1.00
  virtual crystal weights 
   VCA    =   1.00  1.00
   NELECT =     648.0000    total number of electrons
   NUPDOWN=      -1.0000    fix difference up-down

 DOS related values:
   EMIN   =  10.00;   EMAX   =-10.00  energy-range for DOS
   EFERMI =   0.00;   METHOD = LEGACY      
   ISMEAR =     0;   SIGMA  =   0.05  broadening in eV -4-tet -1-fermi 0-gaus

 Electronic relaxation 2 (details)
   IALGO  =     38    algorithm
   LDIAG  =      T    sub-space diagonalisation (order eigenvalues)
   LSUBROT=      F    optimize rotation matrix (better conditioning)
   TURBO    =      0    0=normal 1=particle mesh
   IRESTART =      0    0=no restart 2=restart with 2 vectors
   NREBOOT  =      0    no. of reboots
   NMIN     =      0    reboot dimension
   EREF     =   0.00    reference energy to select bands
   IMIX   =      1    mixing-type and parameters
     AMIX     =   0.40;   BMIX     =  1.00
     AMIX_MAG =   1.60;   BMIX_MAG =  1.00
     AMIN     =   0.10
     WC   =   100.;   INIMIX=   1;  MIXPRE=   1;  MAXMIX= -45

 Intra band minimization:
   WEIMIN = 0.0000     energy-eigenvalue tresh-hold
   EBREAK =  0.64E-09  absolut break condition
   DEPER  =   0.30     relativ break condition  

   TIME   =   0.40     timestep for ELM

  volume/ion in A,a.u.               =      24.86       167.78
  Fermi-wavevector in a.u.,A,eV,Ry     =   1.166742  2.204823 18.521437  1.361287
  Thomas-Fermi vector in A             =   2.303251
 
 Write flags
   LWAVE        =      F    write WAVECAR
   LDOWNSAMPLE  =      F    k-point downsampling of WAVECAR
   LCHARG       =      F    write CHGCAR
   LVTOT        =      F    write LOCPOT, total local potential
   LVHAR        =      F    write LOCPOT, Hartree potential only
   LELF         =      F    write electronic localiz. function (ELF)
   LORBIT       =      0    0 simple, 1 ext, 2 COOP (PROOUT), +10 PAW based schemes


 Dipole corrections
   LMONO  =      F    monopole corrections only (constant potential shift)
   LDIPOL =      F    correct potential (dipole corrections)
   IDIPOL =      0    1-x, 2-y, 3-z, 4-all directions 
   EPSILON=  1.0000000 bulk dielectric constant

 Exchange correlation treatment:
   GGA     =    PE    GGA type
   LEXCH   =     8    internal setting for exchange type
   LIBXC   =     F    Libxc                    
   VOSKOWN =     0    Vosko Wilk Nusair interpolation
   EXXOEP  =     0    0=HF, 1=EXX-LHF (local Hartree Fock) 2=EXX OEP
   LHFCALC =     T    Hartree Fock is set to
   LSYMGRAD=     F    symmetrize gradient (conserves proper symmetry)
   PRECFOCK=normal    Normal, Fast or Accurate (Low or Medium for compatibility)
   LRHFCALC=     F    long range Hartree Fock
   LRSCOR  =     F    long range correlation only (use DFT for short range part)
   LTHOMAS =     F    Thomas Fermi screening in HF
   LMODELHF=     F    short range full HF, long range fraction AEXX
   FOCKCORR=     1    mode to apply convergence corrections
   LFOCKACE=     T    use Adeptively-Compressed-Exchange operator
   ENCUT4O =  -1.0   cutoff for four orbital integrals eV
   LMAXFOCK=     4    L truncation for augmentation on plane wave grid
   LMAXFOCKAE=  -1    L truncation for all-electron charge restoration on plane wave grid
   NMAXFOCKAE=   1    number of basis functions for all-electron charge restoration
   LFOCKAEDFT=     F  apply the AE augmentation even for DFT
   NKREDX  =     1    reduce k-point grid by
   NKREDY  =     1    reduce k-point grid by
   NKREDZ  =     1    reduce k-point grid by
   SHIFTRED=     F    shift reduced grid of Gamma
   HFKIDENT=     F    idential grid for each k-point
   ODDONLY =     F    use only odd q-grid points
   EVENONLY=     F    use only even q-grid points
   HFALPHA =   -1.0000 decay constant for conv. correction
   MCALPHA =    0.0000 extent of test-charge in conv. correction in multipole expansion
   AEXX    =    0.2500 exact exchange contribution
   HFSCREEN=    0.2000 screening length (either q_TF or 0.3 A-1)
   HFSCREENC=   0.2000 screening length for correlation (either q_TF or 0.3 A-1)
   HFRCUT  =    0.0000 spherical cutoff for potential kernel
   ALDAX   =    0.7500 LDA exchange part
   AGGAX   =    0.7500 GGA exchange part
   ALDAC   =    1.0000 LDA correlation
   AGGAC   =    1.0000 GGA correlation
   ENCUTFOCK=  -1.0 apply spherical cutoff to Coloumb kernel
   NBANDSGWLOW=     1    first orbital included in HF term
   NBLOCK_FOCK=    64    blocking factor in FOCK_ACC

 Linear response parameters
   LEPSILON=     F    determine dielectric tensor
   LRPA    =     F    only Hartree local field effects (RPA)
   LNABLA  =     F    use nabla operator in PAW spheres
   LVEL    =     F    velocity operator in full k-point grid
   CSHIFT  =0.1000    complex shift for real part using Kramers Kronig
   OMEGAMAX=  -1.0    maximum frequency
   DEG_THRESHOLD= 0.2000000E-02 threshold for treating states as degnerate
   RTIME   =   -0.100 relaxation time in fs
  (WPLASMAI=    0.000 imaginary part of plasma frequency in eV, 0.658/RTIME)
   DFIELD  = 0.0000000 0.0000000 0.0000000 field for delta impulse in time
 
  Optional k-point grid parameters
   LKPOINTS_OPT  =     F    use optional k-point grid
   KPOINTS_OPT_MODE=     1    mode for optional k-point grid
 
 Orbital magnetization related:
   ORBITALMAG=     F  switch on orbital magnetization
   LCHIMAG   =     F  perturbation theory with respect to B field
   DQ        =  0.001000  dq finite difference perturbation B field
   LLRAUG    =     F  two centre corrections for induced B field
   LBONE     =     F  B-component reconstruction in AE one-centre
   LVGVCALC  =     T  calculate vGv susceptibility
   LVGVAPPL  =     F  apply vGv susceptibility instead of pGv for G=0

 Random number generation:
   RANDOM_GENERATOR = DEFAULT
   PCG_SEED         = not used


--------------------------------------------------------------------------------------------------------


 Static calculation
 charge density and potential will be updated during run
 non-spin polarized calculation
 Variant of blocked Davidson
 Davidson routine will perform the subspace rotation
 perform sub-space diagonalisation
    after iterative eigenvector-optimisation
 Kerker-like  mixing scheme
 using additional bands           68
 reciprocal scheme for non local part
 use partial core corrections
 calculate Harris-corrections to forces 
   (improved forces if not selfconsistent)
 use gradient corrections 
 use of overlap-Matrix (Vanderbilt PP)
 Gauss-broadening in eV      SIGMA  =   0.05


--------------------------------------------------------------------------------------------------------


  energy-cutoff  :      400.00
  volume of cell :     1790.09
      direct lattice vectors                 reciprocal lattice vectors
    12.397785450  0.000000000  0.000000000     0.080659567  0.046568822  0.000000000
    -6.198892720 10.736797150  0.000000000     0.000000000  0.093137645  0.000000000
     0.000000000  0.000000000 13.447946420     0.000000000  0.000000000  0.074360796

  length of vectors
    12.397785450 12.397785447 13.447946420     0.093137645  0.093137645  0.074360796


 
 k-points in units of 2pi/SCALE and weight: Automatic mesh                          
   0.00000000  0.00000000  0.00000000       1.000
 
 k-points in reciprocal lattice and weights: Automatic mesh                          
   0.00000000  0.00000000  0.00000000       1.000
 
 position of ions in fractional coordinates (direct lattice) 
   0.11972635  0.22056912  0.00295556
   0.44281540  0.22422611  0.99938630
   0.76223327  0.20519066  0.99954166
   0.11207506  0.55731223  0.99887628
   0.45199603  0.56907384  0.00050077
   0.75810858  0.54835758  0.00371786
   0.11512763  0.88116578  0.99477389
   0.43801429  0.87394151  0.00215953
   0.77736864  0.88588952  0.99780284
   0.11582697  0.21639354  0.49045884
   0.44541314  0.22233734  0.49954757
   0.77545267  0.20549237  0.49524727
   0.10732422  0.55339969  0.50021798
   0.44172140  0.55393845  0.50224180
   0.77738590  0.55596265  0.50008486
   0.11870565  0.88921948  0.49881193
   0.44481104  0.88842573  0.49984454
   0.77450579  0.88422470  0.49951430
   0.22221171  0.10897865  0.25024792
   0.54923072  0.10247851  0.25408466
   0.89198108  0.12565656  0.25119241
   0.22581369  0.44770997  0.25090247
   0.56290580  0.45284031  0.24999282
   0.86943211  0.43989506  0.25350175
   0.23437626  0.77946198  0.25899711
   0.56187064  0.78461596  0.25949139
   0.90101892  0.79806197  0.24230455
   0.21844004  0.10795361  0.75120626
   0.55639027  0.10926347  0.74484846
   0.90125308  0.13232099  0.74482337
   0.21590702  0.43878562  0.74670596
   0.55336621  0.44045312  0.74929246
   0.88324438  0.43979981  0.74919042
   0.21967453  0.78582266  0.75031623
   0.56039815  0.76932621  0.75174738
   0.88559968  0.78377451  0.75024289
   0.11129873  0.22243758  0.18858760
   0.45851803  0.23486916  0.20098701
   0.76705711  0.21589687  0.18795318
   0.09992092  0.54793454  0.18938210
   0.44930357  0.56896245  0.17481033
   0.77944161  0.55751170  0.19534675
   0.11094138  0.89013691  0.18626742
   0.43436529  0.88411376  0.18782322
   0.77546863  0.88272662  0.18930894
   0.11019236  0.21868616  0.68901368
   0.44517847  0.22100369  0.68877189
   0.78223934  0.22991769  0.68965622
   0.10617179  0.55812191  0.68072478
   0.44223434  0.55102584  0.68606782
   0.78220398  0.56445636  0.68310422
   0.13104463  0.89530967  0.68464621
   0.43633812  0.87326800  0.69274767
   0.77776983  0.88888313  0.68838877
   0.22713698  0.11282225  0.44406446
   0.55923183  0.11668391  0.44277596
   0.90993608  0.12695628  0.43738776
   0.21416608  0.43252367  0.44908015
   0.56922939  0.44981403  0.43020531
   0.88660163  0.45063814  0.44268045
   0.20441558  0.77659938  0.44470284
   0.56533482  0.79426919  0.43323237
   0.89487887  0.78437158  0.43112038
   0.22069521  0.10824138  0.94312664
   0.54405087  0.09094255  0.94690792
   0.89700176  0.11509860  0.92903175
   0.22330770  0.45590345  0.94226909
   0.56976775  0.44942860  0.94140525
   0.89003263  0.44596896  0.93468106
   0.20842168  0.76584184  0.93474966
   0.55378951  0.77990544  0.94562615
   0.88706339  0.77505896  0.92255848
 
 position of ions in cartesian coordinates  (Angst):
   0.11705729  2.36820590  0.03974621
   4.09997672  2.40747026 13.43969342
   8.17804966  2.20309049 13.44178269
  -2.06523618  5.98374836 13.43283469
   2.07612212  6.11003038  0.00673433
   5.99965771  5.88760410  0.04999758
  -4.03492448  9.46089824 13.37766597
   0.01293753  9.38333271  0.02904124
   4.14611552  9.51161607 13.41839913
   0.09459758  2.32337354  6.59566420
   4.14389123  2.38719092  6.71788896
   8.34007067  2.20632989  6.66005875
  -2.09988266  5.94174021  6.72690459
   2.04256212  5.94752477  6.75412082
   6.19151078  5.96925820  6.72511440
  -4.04048898  9.54736918  6.70799611
   0.00741605  9.53884685  6.72188259
   4.12094256  9.49374124  6.71744154
   2.07938614  1.17008166  3.36532062
   6.17399134  1.10029097  3.41691689
  10.27965852  1.34914900  3.37802207
   0.02428361  4.80697113  3.37412297
   4.17167684  4.86205455  3.36189005
   8.05217048  4.72306403  3.40907795
  -1.92605461  8.36892517  3.48297926
   2.10220148  8.42426240  3.48962631
   6.22353872  8.56862949  3.25849861
   2.03897990  1.15907601 10.10218153
   6.22069467  1.17313971 10.01668218
  10.35329870  1.42070363 10.01634477
  -0.04321607  4.71115219 10.04166174
   4.13019391  4.72905580 10.07644485
   8.22400248  4.72204135 10.07507263
  -2.14775267  8.43721850 10.09021246
   2.17872539  8.26009946 10.10945849
   6.12094072  8.41522793 10.08922619
   0.00099108  2.38826717  2.53611594
   4.22867943  2.52174253  2.70286254
   8.17148794  2.31804090  2.52758429
  -2.15778930  5.88306201  2.54680033
   2.04343207  6.10883441  2.35083995
   6.20739463  5.98589003  2.62701263
  -4.14243578  9.55721944  2.50491428
  -0.09535868  9.49255010  2.52583660
   4.14216608  9.47765666  2.54581648
   0.01052919  2.34798894  9.26581905
   4.14924899  2.37287179  9.26256747
   8.27280041  2.46857960  9.27445989
  -2.14344277  5.99244173  9.15435037
   2.06697640  5.91625267  9.22620328
   6.19859270  6.06045344  9.18634895
  -3.92526539  9.61275831  9.20708555
  -0.00366825  9.37610137  9.31603355
   4.13253232  9.54375786  9.25741530
   2.11662252  1.21134961  5.97175507
   6.20992520  1.25281147  5.95442739
  10.49420393  1.36310383  5.88196716
  -0.02598272  4.64391891  6.03920580
   4.26883493  4.82956200  5.78537796
   8.19843930  4.83841030  5.95314297
  -2.27975574  8.33819001  5.98033997
   2.08531031  8.52790718  5.82608570
   6.23228096  8.42163854  5.79768377
   2.06515516  1.16216574 12.68311652
   6.18128285  0.97643171 12.73396697
  10.40735150  1.23579032 12.49356920
  -0.05757562  4.89494286 12.67158424
   4.27789864  4.82542371 12.65996736
   8.26991985  4.78827826 12.56954081
  -2.16340413  8.22268849 12.57046334
   2.03121338  8.37368651 12.71672980
   6.19311425  8.32165083 12.40651701
 


--------------------------------------------------------------------------------------------------------


 k-point   1 :   0.0000 0.0000 0.0000  plane waves:   32461

 maximum and minimum number of plane-waves per node :     32461    32461

 maximum number of plane-waves:     32461
 maximum index in each direction: 
   IXMAX=   20   IYMAX=   20   IZMAX=   21
   IXMIN=  -20   IYMIN=  -20   IZMIN=  -21


 serial   3D FFT for wavefunctions
 parallel 3D FFT for charge:
    minimum data exchange during FFTs selected (reduces bandwidth)


 FFT grid for exact exchange (Hartree Fock) 
  NGX = 64; NGY = 64; NGZ = 70

 
 Radii for the augmentation spheres in the non-local exchange
 for species   1 augmentation radius   1.337 (default was   1.070)
       energy cutoff for augmentation   1600.0
 for species   2 augmentation radius   1.212 (default was   0.970)
       energy cutoff for augmentation   1600.0
 Maximum index for augmentation-charges in exchange         1618
  SETUP_FOCK is finished

 total amount of memory used by VASP MPI-rank0   207836. kBytes
=======================================================================

   base      :      30000. kBytes
   nonl-proj :      46748. kBytes
   fftplans  :      24160. kBytes
   grid      :      61358. kBytes
   one-center:       1119. kBytes
   HF        :        129. kBytes
   nonlr-proj:      18137. kBytes
   wavefun   :      26185. kBytes
 
     INWAV:  cpu time      0.0001: real time      0.0007
 initial charge density was supplied:
 charge density of overlapping atoms calculated
 number of electron     648.0000000 magnetization 
 keeping initial charge density in first step


--------------------------------------------------------------------------------------------------------


 Maximum index for augmentation-charges         1870 (set IRDMAX)


--------------------------------------------------------------------------------------------------------


 First call to EWALD:  gamma=   0.146
 Maximum number of real-space cells 3x 3x 3
 Maximum number of reciprocal cells 3x 3x 3

    FEWALD:  cpu time      0.0027: real time      0.0027


--------------------------------------- Ionic step        1  -------------------------------------------




--------------------------------------- Iteration      1(   1)  ---------------------------------------


    POTLOK:  cpu time      0.3538: real time      0.3724
    SETDIJ:  cpu time      0.0226: real time      0.0228
     EDDAV:  cpu time     17.9830: real time     18.1799
       DOS:  cpu time      0.0004: real time      0.0004
    --------------------------------------------
      LOOP:  cpu time     18.3597: real time     18.5756

 eigenvalue-minimisations  :   800
 total energy-change (2. order) :-0.3682569E+05  (-0.2857691E+05)
 number of electron     648.0000000 magnetization 
 augmentation part      648.0000000 magnetization 

 Free energy of the ion-electron system (eV)
  ---------------------------------------------------
  alpha Z        PSCENC =      2745.44577923
  Ewald energy   TEWEN  =    -41609.50059425
  -Hartree energ DENC   =    -16820.16317736
  -exchange      EXHF   =         0.00000000
  -V(xc)+E(xc)   XCENC  =       636.85584026
  PAW double counting   =     50910.12673542   -89076.03645126
  entropy T*S    EENTRO =        -0.05018006
  eigenvalues    EBANDS =       -49.02919920
  atomic energy  EATOM  =     56436.66214262
  Solvation  Ediel_sol  =         0.00000000
  ---------------------------------------------------
  free energy    TOTEN  =    -36825.68910460 eV

  energy without entropy =   -36825.63892454  energy(sigma->0) =   -36825.66401457
  exchange ACFDT corr.  =         0.00000000  see jH, gK, PRB 81, 115126


--------------------------------------------------------------------------------------------------------




--------------------------------------- Iteration      1(   2)  ---------------------------------------


     EDDAV:  cpu time     19.0125: real time     19.1666
       DOS:  cpu time      0.0002: real time      0.0002
    --------------------------------------------
      LOOP:  cpu time     19.0127: real time     19.1668

 eigenvalue-minimisations  :   880
 total energy-change (2. order) :-0.4181953E+04  (-0.4067521E+04)
 number of electron     648.0000000 magnetization 
 augmentation part      648.0000000 magnetization 

 Free energy of the ion-electron system (eV)
  ---------------------------------------------------
  alpha Z        PSCENC =      2745.44577923
  Ewald energy   TEWEN  =    -41609.50059425
  -Hartree energ DENC   =    -16820.16317736
  -exchange      EXHF   =         0.00000000
  -V(xc)+E(xc)   XCENC  =       636.85584026
  PAW double counting   =     50910.12673542   -89076.03645126
  entropy T*S    EENTRO =        -0.00000000
  eigenvalues    EBANDS =     -4231.03280892
  atomic energy  EATOM  =     56436.66214262
  Solvation  Ediel_sol  =         0.00000000
  ---------------------------------------------------
  free energy    TOTEN  =    -41007.64253426 eV

  energy without entropy =   -41007.64253426  energy(sigma->0) =   -41007.64253426
  exchange ACFDT corr.  =         0.00000000  see jH, gK, PRB 81, 115126


--------------------------------------------------------------------------------------------------------




--------------------------------------- Iteration      1(   3)  ---------------------------------------


     EDDAV:  cpu time     18.9137: real time     19.0823
       DOS:  cpu time      0.0002: real time      0.0002
    --------------------------------------------
      LOOP:  cpu time     18.9139: real time     19.0824

 eigenvalue-minimisations  :   888
 total energy-change (2. order) :-0.2895067E+03  (-0.2869663E+03)
 number of electron     648.0000000 magnetization 
 augmentation part      648.0000000 magnetization 

 Free energy of the ion-electron system (eV)
  ---------------------------------------------------
  alpha Z        PSCENC =      2745.44577923
  Ewald energy   TEWEN  =    -41609.50059425
  -Hartree energ DENC   =    -16820.16317736
  -exchange      EXHF   =         0.00000000
  -V(xc)+E(xc)   XCENC  =       636.85584026
  PAW double counting   =     50910.12673542   -89076.03645126
  entropy T*S    EENTRO =        -0.00000000
  eigenvalues    EBANDS =     -4520.53954869
  atomic energy  EATOM  =     56436.66214262
  Solvation  Ediel_sol  =         0.00000000
  ---------------------------------------------------
  free energy    TOTEN  =    -41297.14927403 eV

  energy without entropy =   -41297.14927403  energy(sigma->0) =   -41297.14927403
  exchange ACFDT corr.  =         0.00000000  see jH, gK, PRB 81, 115126


--------------------------------------------------------------------------------------------------------




--------------------------------------- Iteration      1(   4)  ---------------------------------------


     EDDAV:  cpu time     18.9703: real time     19.1012
       DOS:  cpu time      0.0002: real time      0.0001
    --------------------------------------------
      LOOP:  cpu time     18.9705: real time     19.1013

 eigenvalue-minimisations  :   888
 total energy-change (2. order) :-0.6002398E+01  (-0.5971349E+01)
 number of electron     648.0000000 magnetization 
 augmentation part      648.0000000 magnetization 

 Free energy of the ion-electron system (eV)
  ---------------------------------------------------
  alpha Z        PSCENC =      2745.44577923
  Ewald energy   TEWEN  =    -41609.50059425
  -Hartree energ DENC   =    -16820.16317736
  -exchange      EXHF   =         0.00000000
  -V(xc)+E(xc)   XCENC  =       636.85584026
  PAW double counting   =     50910.12673542   -89076.03645126
  entropy T*S    EENTRO =        -0.00000000
  eigenvalues    EBANDS =     -4526.54194658
  atomic energy  EATOM  =     56436.66214262
  Solvation  Ediel_sol  =         0.00000000
  ---------------------------------------------------
  free energy    TOTEN  =    -41303.15167192 eV

  energy without entropy =   -41303.15167192  energy(sigma->0) =   -41303.15167192
  exchange ACFDT corr.  =         0.00000000  see jH, gK, PRB 81, 115126


--------------------------------------------------------------------------------------------------------




--------------------------------------- Iteration      1(   5)  ---------------------------------------


    POTLOK:  cpu time      0.7780: real time      0.7829
    SETDIJ:  cpu time      0.0963: real time      0.0967
     EDDAV:  cpu time    327.2035: real time    330.6871
       DOS:  cpu time      0.0002: real time      0.0002
    CHARGE:  cpu time      0.5164: real time      0.5237
    MIXING:  cpu time      0.0026: real time      0.0026
    --------------------------------------------
      LOOP:  cpu time    328.5971: real time    332.0933

 eigenvalue-minimisations  :   800
 total energy-change (2. order) : 0.4101538E+05  (-0.3238742E+02)
 number of electron     648.0000029 magnetization 
 augmentation part      179.5363403 magnetization 

 Free energy of the ion-electron system (eV)
  ---------------------------------------------------
  alpha Z        PSCENC =      2745.44577923
  Ewald energy   TEWEN  =    -41609.50059425
  -Hartree energ DENC   =    -16820.16317736
  -exchange      EXHF   =      1442.15906698
  -V(xc)+E(xc)   XCENC  =       445.15357887
  PAW double counting   =     51082.15888359   -49876.27905934
  entropy T*S    EENTRO =        -0.00000000
  eigenvalues    EBANDS =     -4133.40376030
  atomic energy  EATOM  =     56436.66214262
  Solvation  Ediel_sol  =         0.00000000
  ---------------------------------------------------
  free energy    TOTEN  =      -287.76713997 eV

  energy without entropy =     -287.76713997  energy(sigma->0) =     -287.76713997
  exchange ACFDT corr.  =         0.00000000  see jH, gK, PRB 81, 115126


--------------------------------------------------------------------------------------------------------




--------------------------------------- Iteration      1(   6)  ---------------------------------------


    POTLOK:  cpu time      0.7921: real time      0.7976
    SETDIJ:  cpu time      0.1102: real time      0.1105
     EDDAV:  cpu time    283.4564: real time    286.4198
       DOS:  cpu time      0.0002: real time      0.0002
    CHARGE:  cpu time      0.4991: real time      0.5015
    MIXING:  cpu time      0.0035: real time      0.0035
    --------------------------------------------
      LOOP:  cpu time    284.8615: real time    287.8330

 eigenvalue-minimisations  :   832
 total energy-change (2. order) : 0.2059352E+02  (-0.5296299E+01)
 number of electron     648.0000047 magnetization 
 augmentation part      180.1052430 magnetization 

 Free energy of the ion-electron system (eV)
  ---------------------------------------------------
  alpha Z        PSCENC =      2745.44577923
  Ewald energy   TEWEN  =    -41609.50059425
  -Hartree energ DENC   =    -16903.59518833
  -exchange      EXHF   =      1411.20392162
  -V(xc)+E(xc)   XCENC  =       453.69257708
  PAW double counting   =     57797.23720907   -56565.67574807
  entropy T*S    EENTRO =        -0.00000000
  eigenvalues    EBANDS =     -4032.64371893
  atomic energy  EATOM  =     56436.66214262
  Solvation  Ediel_sol  =         0.00000000
  ---------------------------------------------------
  free energy    TOTEN  =      -267.17361997 eV

  energy without entropy =     -267.17361997  energy(sigma->0) =     -267.17361997
  exchange ACFDT corr.  =         0.00000000  see jH, gK, PRB 81, 115126


--------------------------------------------------------------------------------------------------------




--------------------------------------- Iteration      1(   7)  ---------------------------------------


    POTLOK:  cpu time      0.7591: real time      0.7651
    SETDIJ:  cpu time      0.0919: real time      0.0922
     EDDAV:  cpu time    290.1795: real time    292.3962
       DOS:  cpu time      0.0002: real time      0.0002
    CHARGE:  cpu time      0.4978: real time      0.5002
    MIXING:  cpu time      0.0042: real time      0.0043
    --------------------------------------------
      LOOP:  cpu time    291.5327: real time    293.7580

 eigenvalue-minimisations  :   832
 total energy-change (2. order) :-0.1640001E-01  (-0.1967976E+01)
 number of electron     648.0000057 magnetization 
 augmentation part      180.9666443 magnetization 

 Free energy of the ion-electron system (eV)
  ---------------------------------------------------
  alpha Z        PSCENC =      2745.44577923
  Ewald energy   TEWEN  =    -41609.50059425
  -Hartree energ DENC   =    -16902.52690040
  -exchange      EXHF   =      1392.62149632
  -V(xc)+E(xc)   XCENC  =       456.36848066
  PAW double counting   =     64511.48992318   -63269.54640919
  entropy T*S    EENTRO =        -0.00000000
  eigenvalues    EBANDS =     -4028.20393816
  atomic energy  EATOM  =     56436.66214262
  Solvation  Ediel_sol  =         0.00000000
  ---------------------------------------------------
  free energy    TOTEN  =      -267.19001998 eV

  energy without entropy =     -267.19001998  energy(sigma->0) =     -267.19001998
  exchange ACFDT corr.  =         0.00000000  see jH, gK, PRB 81, 115126


--------------------------------------------------------------------------------------------------------




--------------------------------------- Iteration      1(   8)  ---------------------------------------


    POTLOK:  cpu time      0.7676: real time      0.7738
    SETDIJ:  cpu time      0.0975: real time      0.0977
     EDDAV:  cpu time    291.3376: real time    293.1867
       DOS:  cpu time      0.0002: real time      0.0002
    CHARGE:  cpu time      0.4982: real time      0.5006
    MIXING:  cpu time      0.0045: real time      0.0045
    --------------------------------------------
      LOOP:  cpu time    292.7055: real time    294.5634

 eigenvalue-minimisations  :   864
 total energy-change (2. order) :-0.3742683E+00  (-0.1476316E+00)
 number of electron     648.0000063 magnetization 
 augmentation part      180.9939506 magnetization 

 Free energy of the ion-electron system (eV)
  ---------------------------------------------------
  alpha Z        PSCENC =      2745.44577923
  Ewald energy   TEWEN  =    -41609.50059425
  -Hartree energ DENC   =    -16890.49858695
  -exchange      EXHF   =      1383.62581449
  -V(xc)+E(xc)   XCENC  =       456.68027059
  PAW double counting   =     69841.07302945   -68596.89436952
  entropy T*S    EENTRO =        -0.00000000
  eigenvalues    EBANDS =     -4034.15777395
  atomic energy  EATOM  =     56436.66214262
  Solvation  Ediel_sol  =         0.00000000
  ---------------------------------------------------
  free energy    TOTEN  =      -267.56428830 eV

  energy without entropy =     -267.56428830  energy(sigma->0) =     -267.56428830
  exchange ACFDT corr.  =         0.00000000  see jH, gK, PRB 81, 115126


--------------------------------------------------------------------------------------------------------




--------------------------------------- Iteration      1(   9)  ---------------------------------------


    POTLOK:  cpu time      0.7878: real time      0.7931
    SETDIJ:  cpu time      0.0958: real time      0.0960
     EDDAV:  cpu time    289.9536: real time    291.9291
       DOS:  cpu time      0.0002: real time      0.0002
    CHARGE:  cpu time      0.5306: real time      0.5330
    MIXING:  cpu time      0.0060: real time      0.0060
    --------------------------------------------
      LOOP:  cpu time    291.3739: real time    293.3574

 eigenvalue-minimisations  :   840
 total energy-change (2. order) : 0.1619188E+00  (-0.1137561E-01)
 number of electron     648.0000067 magnetization 
 augmentation part      180.9020333 magnetization 

 Free energy of the ion-electron system (eV)
  ---------------------------------------------------
  alpha Z        PSCENC =      2745.44577923
  Ewald energy   TEWEN  =    -41609.50059425
  -Hartree energ DENC   =    -16879.65481708
  -exchange      EXHF   =      1381.77967206
  -V(xc)+E(xc)   XCENC  =       456.57617069
  PAW double counting   =     73438.89543323   -72194.14442745
  entropy T*S    EENTRO =        -0.00000000
  eigenvalues    EBANDS =     -4043.46172859
  atomic energy  EATOM  =     56436.66214262
  Solvation  Ediel_sol  =         0.00000000
  ---------------------------------------------------
  free energy    TOTEN  =      -267.40236954 eV

  energy without entropy =     -267.40236954  energy(sigma->0) =     -267.40236954
  exchange ACFDT corr.  =         0.00000000  see jH, gK, PRB 81, 115126


--------------------------------------------------------------------------------------------------------




--------------------------------------- Iteration      1(  10)  ---------------------------------------


    POTLOK:  cpu time      0.7649: real time      0.7704
    SETDIJ:  cpu time      0.0954: real time      0.0958
     EDDAV:  cpu time    291.2745: real time    293.2736
       DOS:  cpu time      0.0002: real time      0.0002
    CHARGE:  cpu time      0.5055: real time      0.5079
    MIXING:  cpu time      0.0038: real time      0.0038
    --------------------------------------------
      LOOP:  cpu time    292.6442: real time    294.6517

 eigenvalue-minimisations  :   848
 total energy-change (2. order) : 0.4348921E-01  (-0.7613582E-02)
 number of electron     648.0000069 magnetization 
 augmentation part      180.8525648 magnetization 

 Free energy of the ion-electron system (eV)
  ---------------------------------------------------
  alpha Z        PSCENC =      2745.44577923
  Ewald energy   TEWEN  =    -41609.50059425
  -Hartree energ DENC   =    -16873.89741473
  -exchange      EXHF   =      1382.23558671
  -V(xc)+E(xc)   XCENC  =       456.59304132
  PAW double counting   =     75471.16552080   -74225.95463903
  entropy T*S    EENTRO =        -0.00000000
  eigenvalues    EBANDS =     -4050.10830301
  atomic energy  EATOM  =     56436.66214262
  Solvation  Ediel_sol  =         0.00000000
  ---------------------------------------------------
  free energy    TOTEN  =      -267.35888034 eV

  energy without entropy =     -267.35888034  energy(sigma->0) =     -267.35888034
  exchange ACFDT corr.  =         0.00000000  see jH, gK, PRB 81, 115126


--------------------------------------------------------------------------------------------------------




--------------------------------------- Iteration      1(  11)  ---------------------------------------


    POTLOK:  cpu time      0.7628: real time      0.7678
    SETDIJ:  cpu time      0.0898: real time      0.0901
     EDDAV:  cpu time    291.5979: real time    293.7122
       DOS:  cpu time      0.0002: real time      0.0002
    CHARGE:  cpu time      0.4936: real time      0.4960
    MIXING:  cpu time      0.0026: real time      0.0026
    --------------------------------------------
      LOOP:  cpu time    292.9470: real time    295.0690

 eigenvalue-minimisations  :   848
 total energy-change (2. order) : 0.7487561E-02  (-0.1615577E-02)
 number of electron     648.0000070 magnetization 
 augmentation part      180.8387152 magnetization 

 Free energy of the ion-electron system (eV)
  ---------------------------------------------------
  alpha Z        PSCENC =      2745.44577923
  Ewald energy   TEWEN  =    -41609.50059425
  -Hartree energ DENC   =    -16872.34258377
  -exchange      EXHF   =      1382.78475482
  -V(xc)+E(xc)   XCENC  =       456.70850524
  PAW double counting   =     76507.47132072   -75261.87090502
  entropy T*S    EENTRO =        -0.00000000
  eigenvalues    EBANDS =     -4052.70981236
  atomic energy  EATOM  =     56436.66214262
  Solvation  Ediel_sol  =         0.00000000
  ---------------------------------------------------
  free energy    TOTEN  =      -267.35139278 eV

  energy without entropy =     -267.35139278  energy(sigma->0) =     -267.35139278
  exchange ACFDT corr.  =         0.00000000  see jH, gK, PRB 81, 115126


--------------------------------------------------------------------------------------------------------




--------------------------------------- Iteration      1(  12)  ---------------------------------------


    POTLOK:  cpu time      0.7580: real time      0.7634
    SETDIJ:  cpu time      0.0899: real time      0.0902
     EDDAV:  cpu time    290.7938: real time    292.7871
       DOS:  cpu time      0.0002: real time      0.0002
    CHARGE:  cpu time      0.5226: real time      0.5251
    MIXING:  cpu time      0.0045: real time      0.0045
    --------------------------------------------
      LOOP:  cpu time    292.1689: real time    294.1705

 eigenvalue-minimisations  :   848
 total energy-change (2. order) : 0.1870729E-02  (-0.3899304E-03)
 number of electron     648.0000071 magnetization 
 augmentation part      180.8353665 magnetization 

 Free energy of the ion-electron system (eV)
  ---------------------------------------------------
  alpha Z        PSCENC =      2745.44577923
  Ewald energy   TEWEN  =    -41609.50059425
  -Hartree energ DENC   =    -16872.48868534
  -exchange      EXHF   =      1382.99446647
  -V(xc)+E(xc)   XCENC  =       456.82576473
  PAW double counting   =     77029.29011419   -75783.42724602
  entropy T*S    EENTRO =        -0.00000000
  eigenvalues    EBANDS =     -4053.15126368
  atomic energy  EATOM  =     56436.66214262
  Solvation  Ediel_sol  =         0.00000000
  ---------------------------------------------------
  free energy    TOTEN  =      -267.34952205 eV

  energy without entropy =     -267.34952205  energy(sigma->0) =     -267.34952205
  exchange ACFDT corr.  =         0.00000000  see jH, gK, PRB 81, 115126


--------------------------------------------------------------------------------------------------------




--------------------------------------- Iteration      1(  13)  ---------------------------------------


    POTLOK:  cpu time      0.7674: real time      0.7719
    SETDIJ:  cpu time      0.1001: real time      0.1004
     EDDAV:  cpu time    290.3868: real time    292.3673
       DOS:  cpu time      0.0002: real time      0.0002
    CHARGE:  cpu time      0.5180: real time      0.5204
    MIXING:  cpu time      0.0055: real time      0.0055
    --------------------------------------------
      LOOP:  cpu time    291.7780: real time    293.7657

 eigenvalue-minimisations  :   840
 total energy-change (2. order) : 0.1042766E-04  (-0.1920378E-03)
 number of electron     648.0000071 magnetization 
 augmentation part      180.8329297 magnetization 

 Free energy of the ion-electron system (eV)
  ---------------------------------------------------
  alpha Z        PSCENC =      2745.44577923
  Ewald energy   TEWEN  =    -41609.50059425
  -Hartree energ DENC   =    -16873.02358542
  -exchange      EXHF   =      1383.02521158
  -V(xc)+E(xc)   XCENC  =       456.90985542
  PAW double counting   =     77298.81115919   -76052.79684567
  entropy T*S    EENTRO =        -0.00000000
  eigenvalues    EBANDS =     -4052.88263431
  atomic energy  EATOM  =     56436.66214262
  Solvation  Ediel_sol  =         0.00000000
  ---------------------------------------------------
  free energy    TOTEN  =      -267.34951162 eV

  energy without entropy =     -267.34951162  energy(sigma->0) =     -267.34951162
  exchange ACFDT corr.  =         0.00000000  see jH, gK, PRB 81, 115126


--------------------------------------------------------------------------------------------------------




--------------------------------------- Iteration      1(  14)  ---------------------------------------


    POTLOK:  cpu time      0.7865: real time      0.7910
    SETDIJ:  cpu time      0.1022: real time      0.1025
     EDDAV:  cpu time    291.0752: real time    293.0727
       DOS:  cpu time      0.0002: real time      0.0002
    CHARGE:  cpu time      0.5591: real time      0.5618
    MIXING:  cpu time      0.0032: real time      0.0032
    --------------------------------------------
      LOOP:  cpu time    292.5264: real time    294.5313

 eigenvalue-minimisations  :   856
 total energy-change (2. order) :-0.4162606E-03  (-0.8123836E-04)
 number of electron     648.0000072 magnetization 
 augmentation part      180.8303310 magnetization 

 Free energy of the ion-electron system (eV)
  ---------------------------------------------------
  alpha Z        PSCENC =      2745.44577923
  Ewald energy   TEWEN  =    -41609.50059425
  -Hartree energ DENC   =    -16873.49066465
  -exchange      EXHF   =      1383.00474401
  -V(xc)+E(xc)   XCENC  =       456.96141640
  PAW double counting   =     77438.61018308   -76192.51496405
  entropy T*S    EENTRO =        -0.00000000
  eigenvalues    EBANDS =     -4052.52797027
  atomic energy  EATOM  =     56436.66214262
  Solvation  Ediel_sol  =         0.00000000
  ---------------------------------------------------
  free energy    TOTEN  =      -267.34992788 eV

  energy without entropy =     -267.34992788  energy(sigma->0) =     -267.34992788
  exchange ACFDT corr.  =         0.00000000  see jH, gK, PRB 81, 115126


--------------------------------------------------------------------------------------------------------




--------------------------------------- Iteration      1(  15)  ---------------------------------------


    POTLOK:  cpu time      0.7807: real time      0.7863
    SETDIJ:  cpu time      0.1101: real time      0.1104
     EDDAV:  cpu time    289.9241: real time    291.8486
       DOS:  cpu time      0.0002: real time      0.0002
    CHARGE:  cpu time      0.4907: real time      0.4930
    MIXING:  cpu time      0.0029: real time      0.0029
    --------------------------------------------
      LOOP:  cpu time    291.3086: real time    293.2413

 eigenvalue-minimisations  :   840
 total energy-change (2. order) :-0.3314097E-03  (-0.2753469E-04)
 number of electron     648.0000072 magnetization 
 augmentation part      180.8281410 magnetization 

 Free energy of the ion-electron system (eV)
  ---------------------------------------------------
  alpha Z        PSCENC =      2745.44577923
  Ewald energy   TEWEN  =    -41609.50059425
  -Hartree energ DENC   =    -16873.79949431
  -exchange      EXHF   =      1382.98246496
  -V(xc)+E(xc)   XCENC  =       456.99094560
  PAW double counting   =     77511.04718625   -76264.90930600
  entropy T*S    EENTRO =        -0.00000000
  eigenvalues    EBANDS =     -4052.26938339
  atomic energy  EATOM  =     56436.66214262
  Solvation  Ediel_sol  =         0.00000000
  ---------------------------------------------------
  free energy    TOTEN  =      -267.35025929 eV

  energy without entropy =     -267.35025929  energy(sigma->0) =     -267.35025929
  exchange ACFDT corr.  =         0.00000000  see jH, gK, PRB 81, 115126


--------------------------------------------------------------------------------------------------------




--------------------------------------- Iteration      1(  16)  ---------------------------------------


    POTLOK:  cpu time      0.7608: real time      0.7659
    SETDIJ:  cpu time      0.1019: real time      0.1022
     EDDAV:  cpu time    289.6459: real time    291.4365
       DOS:  cpu time      0.0002: real time      0.0002
    CHARGE:  cpu time      0.4989: real time      0.5012
    MIXING:  cpu time      0.0028: real time      0.0030
    --------------------------------------------
      LOOP:  cpu time    291.0105: real time    292.8089

 eigenvalue-minimisations  :   848
 total energy-change (2. order) :-0.2012753E-03  (-0.1135306E-04)
 number of electron     648.0000072 magnetization 
 augmentation part      180.8267818 magnetization 

 Free energy of the ion-electron system (eV)
  ---------------------------------------------------
  alpha Z        PSCENC =      2745.44577923
  Ewald energy   TEWEN  =    -41609.50059425
  -Hartree energ DENC   =    -16874.00469115
  -exchange      EXHF   =      1382.97342433
  -V(xc)+E(xc)   XCENC  =       457.00864693
  PAW double counting   =     77547.11267128   -76300.95133661
  entropy T*S    EENTRO =        -0.00000000
  eigenvalues    EBANDS =     -4052.09650293
  atomic energy  EATOM  =     56436.66214262
  Solvation  Ediel_sol  =         0.00000000
  ---------------------------------------------------
  free energy    TOTEN  =      -267.35046057 eV

  energy without entropy =     -267.35046057  energy(sigma->0) =     -267.35046057
  exchange ACFDT corr.  =         0.00000000  see jH, gK, PRB 81, 115126


--------------------------------------------------------------------------------------------------------




--------------------------------------- Iteration      1(  17)  ---------------------------------------


    POTLOK:  cpu time      0.7587: real time      0.7632
    SETDIJ:  cpu time      0.0911: real time      0.0913
     EDDAV:  cpu time    288.8259: real time    290.7865
       DOS:  cpu time      0.0002: real time      0.0002
    CHARGE:  cpu time      0.5443: real time      0.5469
    MIXING:  cpu time      0.0031: real time      0.0032
    --------------------------------------------
      LOOP:  cpu time    290.2233: real time    292.1913

 eigenvalue-minimisations  :   840
 total energy-change (2. order) :-0.1131948E-03  (-0.5468868E-05)
 number of electron     648.0000072 magnetization 
 augmentation part      180.8260057 magnetization 

 Free energy of the ion-electron system (eV)
  ---------------------------------------------------
  alpha Z        PSCENC =      2745.44577923
  Ewald energy   TEWEN  =    -41609.50059425
  -Hartree energ DENC   =    -16874.15371053
  -exchange      EXHF   =      1382.97104386
  -V(xc)+E(xc)   XCENC  =       457.01997928
  PAW double counting   =     77563.92325881   -76317.74856275
  entropy T*S    EENTRO =        -0.00000000
  eigenvalues    EBANDS =     -4051.96991004
  atomic energy  EATOM  =     56436.66214262
  Solvation  Ediel_sol  =         0.00000000
  ---------------------------------------------------
  free energy    TOTEN  =      -267.35057376 eV

  energy without entropy =     -267.35057376  energy(sigma->0) =     -267.35057376
  exchange ACFDT corr.  =         0.00000000  see jH, gK, PRB 81, 115126


--------------------------------------------------------------------------------------------------------




--------------------------------------- Iteration      1(  18)  ---------------------------------------


    POTLOK:  cpu time      0.7762: real time      0.7877
    SETDIJ:  cpu time      0.1120: real time      0.1125
     EDDAV:  cpu time    289.6598: real time    291.6385
       DOS:  cpu time      0.0002: real time      0.0002
    CHARGE:  cpu time      0.5389: real time      0.5415
    MIXING:  cpu time      0.0040: real time      0.0040
    --------------------------------------------
      LOOP:  cpu time    291.0910: real time    293.0843

 eigenvalue-minimisations  :   856
 total energy-change (2. order) :-0.6164269E-04  (-0.2785081E-05)
 number of electron     648.0000072 magnetization 
 augmentation part      180.8255359 magnetization 

 Free energy of the ion-electron system (eV)
  ---------------------------------------------------
  alpha Z        PSCENC =      2745.44577923
  Ewald energy   TEWEN  =    -41609.50059425
  -Hartree energ DENC   =    -16874.26604257
  -exchange      EXHF   =      1382.97018547
  -V(xc)+E(xc)   XCENC  =       457.02746478
  PAW double counting   =     77570.93507980   -76324.75299342
  entropy T*S    EENTRO =        -0.00000000
  eigenvalues    EBANDS =     -4051.87165707
  atomic energy  EATOM  =     56436.66214262
  Solvation  Ediel_sol  =         0.00000000
  ---------------------------------------------------
  free energy    TOTEN  =      -267.35063540 eV

  energy without entropy =     -267.35063540  energy(sigma->0) =     -267.35063540
  exchange ACFDT corr.  =         0.00000000  see jH, gK, PRB 81, 115126


--------------------------------------------------------------------------------------------------------




--------------------------------------- Iteration      1(  19)  ---------------------------------------


    POTLOK:  cpu time      0.7860: real time      0.7923
    SETDIJ:  cpu time      0.0941: real time      0.0944
     EDDAV:  cpu time    288.8153: real time    290.8142
       DOS:  cpu time      0.0002: real time      0.0002
    CHARGE:  cpu time      0.5127: real time      0.5152
    MIXING:  cpu time      0.0032: real time      0.0033
    --------------------------------------------
      LOOP:  cpu time    290.2115: real time    292.2195

 eigenvalue-minimisations  :   792
 total energy-change (2. order) :-0.3282450E-04  (-0.1385706E-05)
 number of electron     648.0000072 magnetization 
 augmentation part      180.8252392 magnetization 

 Free energy of the ion-electron system (eV)
  ---------------------------------------------------
  alpha Z        PSCENC =      2745.44577923
  Ewald energy   TEWEN  =    -41609.50059425
  -Hartree energ DENC   =    -16874.34983596
  -exchange      EXHF   =      1382.96952438
  -V(xc)+E(xc)   XCENC  =       457.03243339
  PAW double counting   =     77573.24616589   -76327.06014140
  entropy T*S    EENTRO =        -0.00000000
  eigenvalues    EBANDS =     -4051.79614212
  atomic energy  EATOM  =     56436.66214262
  Solvation  Ediel_sol  =         0.00000000
  ---------------------------------------------------
  free energy    TOTEN  =      -267.35066823 eV

  energy without entropy =     -267.35066823  energy(sigma->0) =     -267.35066823
  exchange ACFDT corr.  =         0.00000000  see jH, gK, PRB 81, 115126


--------------------------------------------------------------------------------------------------------




--------------------------------------- Iteration      1(  20)  ---------------------------------------


    POTLOK:  cpu time      0.7929: real time      0.7983
    SETDIJ:  cpu time      0.1089: real time      0.1092
     EDDAV:  cpu time    285.8759: real time    287.9524
       DOS:  cpu time      0.0002: real time      0.0002
    CHARGE:  cpu time      0.5050: real time      0.5073
    MIXING:  cpu time      0.0034: real time      0.0034
    --------------------------------------------
      LOOP:  cpu time    287.2863: real time    289.3708

 eigenvalue-minimisations  :   664
 total energy-change (2. order) :-0.1721253E-04  (-0.6942775E-06)
 number of electron     648.0000072 magnetization 
 augmentation part      180.8250663 magnetization 

 Free energy of the ion-electron system (eV)
  ---------------------------------------------------
  alpha Z        PSCENC =      2745.44577923
  Ewald energy   TEWEN  =    -41609.50059425
  -Hartree energ DENC   =    -16874.41068704
  -exchange      EXHF   =      1382.96889938
  -V(xc)+E(xc)   XCENC  =       457.03572231
  PAW double counting   =     77573.48260680   -76327.29464419
  entropy T*S    EENTRO =        -0.00000000
  eigenvalues    EBANDS =     -4051.73991030
  atomic energy  EATOM  =     56436.66214262
  Solvation  Ediel_sol  =         0.00000000
  ---------------------------------------------------
  free energy    TOTEN  =      -267.35068544 eV

  energy without entropy =     -267.35068544  energy(sigma->0) =     -267.35068544
  exchange ACFDT corr.  =         0.00000000  see jH, gK, PRB 81, 115126


[...]
 -0.091   0.353  -0.049  -0.060   0.513   0.090  -0.336   0.053   0.059  -0.486  -0.132   0.057   0.244   0.024  -0.039  -0.066
 -0.070   0.060  -0.785   0.015   0.060   0.068  -0.068   0.766  -0.014  -0.058   0.053  -0.021   0.024   0.287  -0.018  -0.007
  0.676  -0.061   0.128   0.485  -0.076  -0.663   0.060  -0.123  -0.464   0.075   0.112  -0.049  -0.039  -0.018   0.291   0.012
  0.032  -0.082   0.013   0.018  -0.117  -0.029   0.089  -0.017  -0.018   0.127   0.046  -0.021  -0.066  -0.007   0.012   0.019
  0.019  -0.011   0.180   0.003  -0.016  -0.019   0.019  -0.206   0.002   0.017  -0.017   0.007  -0.007  -0.079   0.006   0.002
 -0.152   0.018  -0.036  -0.115   0.027   0.177  -0.018   0.035   0.124  -0.025  -0.035   0.016   0.012   0.006  -0.079  -0.004


------------------------ aborting loop because EDIFF is reached ----------------------------------------


    CHARGE:  cpu time      0.5194: real time      0.5222
    FORLOC:  cpu time      0.1134: real time      0.1139
    FORHF :  cpu time    246.1024: real time    247.2056
    FORNL :  cpu time      4.7786: real time      4.7940
    FORCOR:  cpu time      0.9392: real time      0.9423
    FORHAR:  cpu time      0.1845: real time      0.1853
    MIXING:  cpu time      0.0030: real time      0.0031
    OFIELD:  cpu time      0.0000: real time      0.0000

 VOLUME and BASIS-vectors are now :
 -----------------------------------------------------------------------------
  energy-cutoff  :      400.00
  volume of cell :     1790.09
      direct lattice vectors                 reciprocal lattice vectors
    12.397785450  0.000000000  0.000000000     0.080659567  0.046568822  0.000000000
    -6.198892720 10.736797150  0.000000000     0.000000000  0.093137645  0.000000000
     0.000000000  0.000000000 13.447946420     0.000000000  0.000000000  0.074360796

  length of vectors
    12.397785450 12.397785447 13.447946420     0.093137645  0.093137645  0.074360796


 FORCES acting on ions
    electron-ion (+dipol)            ewald-force                    non-local-force                 convergence-correction
 -----------------------------------------------------------------------------------------------
   0.260E+02 -.244E+02 0.136E+01   -.271E+02 0.245E+02 -.122E+01   0.169E+00 0.571E+00 -.319E+00   0.182E-02 -.898E-03 0.944E-03
   -.577E+01 0.455E+01 -.635E+01   0.610E+01 -.516E+01 0.710E+01   0.134E+00 0.466E+00 -.155E+00   -.541E-03 -.825E-03 0.569E-03
   -.282E+02 -.364E+02 0.108E+02   0.286E+02 0.369E+02 -.111E+02   0.315E+00 0.324E+00 0.613E-01   -.137E-02 -.334E-02 0.101E-02
   0.315E+02 0.427E+02 -.322E+02   -.323E+02 -.439E+02 0.326E+02   0.767E-01 0.513E+00 0.319E+00   0.227E-02 0.125E-02 0.534E-03
   0.974E+00 0.691E+02 0.367E+02   -.243E+01 -.690E+02 -.359E+02   0.136E+01 -.127E+01 -.185E+01   0.660E-03 0.837E-03 0.714E-03
   -.849E+02 -.276E+02 -.172E+02   0.879E+02 0.279E+02 0.177E+02   0.661E+00 0.150E+01 0.698E+00   -.320E-02 -.139E-03 0.528E-03
   0.300E+02 -.308E+01 -.274E+02   -.301E+02 0.251E+01 0.279E+02   -.971E+00 0.756E+00 -.783E-02   0.633E-03 0.245E-02 0.713E-03
   0.313E+02 -.898E+01 0.901E+01   -.317E+02 0.998E+01 -.915E+01   -.745E+00 -.104E+01 0.213E+00   0.125E-02 0.907E-03 0.129E-02
   -.224E+02 -.430E+02 -.463E+01   0.231E+02 0.435E+02 0.451E+01   -.289E+00 0.136E-02 0.983E-01   -.178E-02 -.202E-03 0.118E-02
   -.130E+02 -.301E+01 -.295E+02   0.133E+02 0.349E+01 0.301E+02   0.303E+00 -.306E+00 0.628E+00   0.906E-03 -.595E-03 -.537E-03
   -.579E+00 -.329E+02 -.118E+02   0.384E+00 0.333E+02 0.120E+02   0.223E+00 0.382E+00 -.790E-01   -.179E-03 -.131E-02 -.344E-03
   -.193E-01 -.209E+02 -.195E+02   0.155E+00 0.225E+02 0.200E+02   -.105E+00 -.417E+00 0.367E-01   -.683E-03 -.369E-02 -.105E-02
   -.251E+02 0.100E+02 0.287E+02   0.233E+02 -.107E+02 -.269E+02   0.158E+01 0.493E+00 -.203E+01   0.271E-02 0.808E-03 -.130E-02
   -.385E+01 -.159E+02 0.264E+02   0.395E+01 0.140E+02 -.255E+02   0.287E+00 0.179E+01 -.145E+01   -.377E-03 0.126E-02 -.824E-03
   0.705E+01 -.242E+02 -.135E+02   -.631E+01 0.241E+02 0.139E+02   -.569E+00 0.857E+00 -.353E+00   -.237E-02 -.197E-03 -.111E-02
   0.541E+02 -.779E+01 -.905E+01   -.556E+02 0.782E+01 0.967E+01   -.652E+00 0.936E+00 0.345E-01   0.968E-03 0.231E-02 -.901E-03
   0.908E+01 0.204E+02 -.250E+02   -.920E+01 -.200E+02 0.265E+02   -.600E+00 -.333E+00 -.101E+01   0.162E-02 0.643E-03 -.118E-02
   -.177E+02 -.119E+02 -.176E+02   0.198E+02 0.110E+02 0.182E+02   -.106E+01 0.134E+01 -.363E+00   -.269E-02 0.470E-03 -.100E-02
   -.105E+02 -.175E+02 0.237E+02   0.106E+02 0.174E+02 -.239E+02   0.207E+00 0.390E+00 0.297E+00   0.850E-03 0.709E-03 0.322E-02
   0.749E+01 0.221E+01 0.189E+02   -.761E+01 -.970E+00 -.195E+02   0.198E-01 -.105E+01 0.481E+00   -.759E-03 -.177E-02 0.362E-02
   -.305E+01 0.931E+01 0.403E+02   0.312E+01 -.884E+01 -.404E+02   0.831E-01 -.103E+01 -.177E+00   0.385E-04 -.143E-02 0.361E-02
   -.482E+01 -.116E+02 -.421E+01   0.333E+01 0.118E+02 0.311E+01   0.131E+01 -.203E-01 0.106E+01   0.255E-02 -.267E-03 0.364E-02
   0.589E+02 -.112E+02 0.143E+02   -.578E+02 0.111E+02 -.139E+02   -.176E+01 0.631E+00 -.821E+00   -.223E-02 -.122E-02 0.300E-02
   -.528E+02 0.815E+00 0.242E+02   0.533E+02 0.387E+00 -.234E+02   0.604E+00 -.144E+01 -.394E+00   -.564E-03 -.181E-02 0.282E-02
   0.378E+02 0.440E+02 0.143E+02   -.387E+02 -.451E+02 -.144E+02   -.609E+00 -.625E-02 0.193E+00   0.248E-02 0.284E-02 0.328E-02
   0.502E+01 0.166E+02 0.193E+02   -.425E+01 -.172E+02 -.205E+02   -.994E+00 0.236E+00 -.360E+00   -.955E-03 0.804E-03 0.408E-02
   -.134E+02 0.243E+02 0.871E+01   0.135E+02 -.245E+02 -.738E+01   -.347E-01 -.918E+00 -.599E+00   -.129E-02 0.209E-02 0.257E-02
   0.255E+01 -.240E+02 -.286E+02   -.245E+01 0.233E+02 0.282E+02   0.744E-01 0.878E+00 0.559E+00   0.897E-03 0.129E-02 -.263E-02
   -.136E+02 0.106E+02 -.336E+02   0.135E+02 -.110E+02 0.338E+02   0.225E+00 -.121E+00 0.237E+00   -.133E-02 -.115E-02 -.293E-02
   0.198E+02 0.396E+02 -.152E+02   -.197E+02 -.395E+02 0.168E+02   -.585E+00 -.103E+01 -.120E+01   0.503E-03 -.109E-02 -.357E-02
   -.237E+01 -.207E+02 -.303E+02   0.141E+01 0.212E+02 0.308E+02   0.540E+00 0.916E-01 -.138E+00   0.284E-02 -.799E-03 -.332E-02
   -.213E+01 0.578E+01 -.148E+02   0.309E+01 -.538E+01 0.141E+02   -.434E+00 0.126E-01 0.709E+00   -.258E-02 -.168E-02 -.259E-02
   0.133E+02 -.209E+02 -.263E+02   -.129E+02 0.223E+02 0.276E+02   -.424E+00 -.182E+00 -.100E+01   -.364E-03 -.182E-02 -.359E-02
   -.293E+02 0.370E+02 -.190E+02   0.298E+02 -.377E+02 0.187E+02   0.538E+00 -.633E+00 0.679E+00   0.187E-02 0.272E-02 -.295E-02
   0.147E+02 -.132E+02 -.446E+01   -.153E+02 0.139E+02 0.388E+01   0.148E+00 -.435E+00 0.790E+00   -.561E-03 0.171E-03 -.284E-02
   -.297E+02 -.111E+02 0.294E+02   0.290E+02 0.988E+01 -.291E+02   0.144E+01 0.108E+01 -.174E+01   -.150E-02 0.201E-02 -.291E-02
   0.499E+00 -.717E+01 0.106E+02   -.455E+00 0.739E+01 -.108E+02   0.176E+00 -.890E-01 0.340E+00   0.584E-03 -.349E-03 0.139E-02
   0.126E+02 0.870E+01 0.232E+02   -.122E+02 -.851E+01 -.234E+02   -.949E+00 -.112E+01 -.704E+00   -.293E-03 -.518E-03 0.125E-02
   -.700E+01 -.148E+02 0.245E+02   0.624E+01 0.153E+02 -.252E+02   0.838E+00 -.354E+00 0.673E+00   -.386E-03 -.133E-02 0.149E-02
   0.179E+02 0.661E+01 -.191E+00   -.189E+02 -.685E+01 -.180E+00   0.111E+01 0.518E+00 0.675E+00   0.924E-03 0.294E-03 0.142E-02
   0.652E+01 0.162E+02 -.303E+02   -.640E+01 -.157E+02 0.303E+02   -.605E-01 -.922E+00 0.208E+01   0.436E-04 0.261E-03 0.134E-02
   -.158E+02 -.397E+02 0.183E+02   0.157E+02 0.413E+02 -.181E+02   -.262E+00 -.330E+00 -.122E+01   -.101E-02 -.402E-04 0.126E-02
   -.302E+02 0.111E+02 0.198E+02   0.318E+02 -.118E+02 -.203E+02   -.351E+00 0.803E+00 0.110E+00   0.313E-03 0.105E-02 0.123E-02
   -.119E+02 -.482E+01 0.189E+02   0.130E+02 0.485E+01 -.200E+02   0.353E-01 0.349E+00 0.988E+00   0.450E-03 0.405E-03 0.146E-02
   0.106E+02 -.275E+02 0.161E+02   -.111E+02 0.281E+02 -.163E+02   -.165E+00 0.481E+00 -.382E+00   -.734E-03 0.177E-03 0.138E-02
   -.202E+02 -.874E+00 0.138E+02   0.207E+02 0.891E+00 -.156E+02   0.267E+00 0.270E+00 0.976E+00   0.664E-03 -.221E-03 -.144E-02
   0.151E+01 -.781E+00 -.970E+01   -.217E+01 0.262E+00 0.924E+01   0.540E+00 0.445E+00 0.474E+00   -.314E-03 -.339E-03 -.123E-02
   0.184E+02 0.121E+02 0.881E+01   -.187E+02 -.118E+02 -.981E+01   -.218E+00 -.129E+01 0.158E+00   -.349E-03 -.125E-02 -.148E-02
   -.719E+01 -.561E+01 -.242E+02   0.671E+01 0.622E+01 0.243E+02   0.810E+00 -.681E+00 0.824E+00   0.961E-03 0.251E-03 -.145E-02
   0.816E+01 0.548E+01 -.740E+01   -.868E+01 -.590E+01 0.747E+01   0.481E+00 0.316E+00 0.244E+00   0.485E-04 0.498E-04 -.134E-02
   -.896E+00 0.227E+01 -.134E+02   0.128E+01 -.209E+01 0.135E+02   -.569E+00 -.539E+00 0.350E+00   -.102E-02 -.897E-04 -.125E-02
   0.384E+02 0.858E+00 0.412E+01   -.393E+02 -.102E+01 -.509E+01   -.114E+01 0.574E+00 0.634E+00   0.364E-03 0.112E-02 -.128E-02
   -.230E+02 0.189E+01 -.475E+01   0.231E+02 -.262E+01 0.490E+01   0.588E+00 0.138E+01 -.518E+00   0.498E-03 0.407E-03 -.145E-02
   0.127E+02 -.345E+02 0.504E+00   -.127E+02 0.361E+02 -.306E+00   -.349E+00 -.637E+00 -.570E+00   -.727E-03 0.168E-03 -.144E-02
   -.888E+01 0.322E+01 0.129E+02   0.928E+01 -.401E+01 -.135E+02   0.448E-01 0.400E+00 -.207E+00   0.354E-03 0.297E-03 0.319E-03
   0.510E+01 -.258E+01 -.475E+01   -.568E+01 0.275E+01 0.434E+01   0.465E+00 -.857E+00 0.189E+00   -.214E-03 -.847E-03 0.268E-03
   0.569E+01 0.244E+02 0.601E+00   -.523E+01 -.253E+02 -.104E+01   -.171E+01 -.540E+00 0.576E-01   -.670E-04 -.600E-03 0.343E-03
   0.790E+00 -.260E+02 0.154E+02   -.153E+01 0.257E+02 -.153E+02   0.102E+01 0.177E+01 -.983E+00   0.926E-03 0.249E-05 0.256E-03
   0.261E+02 0.276E+01 -.135E+02   -.257E+02 -.319E+01 0.130E+02   -.167E+01 0.106E+00 0.133E+01   -.943E-03 -.397E-03 0.445E-03
   -.134E+02 0.207E+02 0.843E+00   0.134E+02 -.214E+02 -.572E+00   0.461E+00 -.461E+00 -.647E+00   -.859E-04 -.653E-03 0.297E-03
   -.315E+02 0.246E+02 0.114E+02   0.317E+02 -.257E+02 -.113E+02   0.253E+01 0.142E+00 -.107E+01   0.104E-02 0.104E-02 0.185E-03
   0.667E+01 0.262E+02 -.265E+02   -.660E+01 -.266E+02 0.270E+02   -.569E+00 -.535E+00 0.680E+00   -.444E-03 0.290E-03 0.317E-03
   -.395E+00 0.636E+01 -.190E+00   0.102E+01 -.710E+01 -.613E+00   -.768E+00 0.703E+00 0.110E+01   -.653E-03 0.811E-03 0.352E-03
   -.483E+01 0.360E+01 0.224E+01   0.476E+01 -.448E+01 -.270E+01   0.552E+00 0.731E+00 -.146E-01   0.459E-03 0.371E-03 -.351E-03
   0.195E+02 -.103E+02 0.224E+02   -.203E+02 0.978E+01 -.231E+02   0.544E-01 0.121E+01 -.208E+00   -.380E-03 -.523E-03 -.270E-03
   -.143E+01 -.403E+01 -.164E+02   0.180E+01 0.424E+01 0.159E+02   -.559E+00 -.431E+00 0.119E+01   0.472E-04 -.685E-03 -.422E-03
   -.116E+02 0.244E+02 0.889E+01   0.117E+02 -.246E+02 -.903E+01   0.972E+00 -.738E+00 -.523E+00   0.116E-02 -.167E-04 -.372E-03
   0.432E+02 0.314E+02 0.282E+02   -.447E+02 -.318E+02 -.292E+02   -.177E+01 -.133E+01 -.479E+00   -.964E-03 -.439E-03 -.405E-03
   0.563E+01 0.112E+02 -.241E+02   -.590E+01 -.110E+02 0.245E+02   -.245E+00 -.641E+00 0.127E+00   -.282E-03 -.504E-03 -.401E-03
   -.131E+02 0.845E+00 0.388E+01   0.137E+02 -.138E+01 -.470E+01   0.402E+00 0.118E+01 0.625E+00   0.806E-03 0.115E-02 -.329E-03
   -.935E+01 -.240E+02 0.290E+02   0.974E+01 0.245E+02 -.296E+02   0.406E+00 -.141E+00 -.637E+00   -.130E-03 0.213E-03 -.286E-03
   -.162E+02 0.757E+01 -.356E+02   0.167E+02 -.842E+01 0.361E+02   -.383E+00 0.783E+00 0.170E+01   -.697E-03 0.690E-03 -.408E-03
 -----------------------------------------------------------------------------------------------
   -.482E+00 -.358E+01 -.767E+00   0.497E-13 0.142E-13 -.924E-12   0.479E+00 0.353E+01 0.403E+00   -.480E-03 -.426E-03 0.112E-02
 
 
 POSITION                                       TOTAL-FORCE (eV/Angst)
 -----------------------------------------------------------------------------------
      0.11706      2.36821      0.03975        -0.863466      0.624493     -0.182333
      4.09998      2.40747     13.43969         0.446078     -0.123577      0.565800
      8.17805      2.20309     13.44178         0.722974      0.783317     -0.266216
     -2.06524      5.98375     13.43283        -0.733989     -0.670240      0.710877
      2.07612      6.11003      0.00673        -0.045482     -1.234093     -1.034668
      5.99966      5.88760      0.05000         3.516354      1.776222      1.223993
     -4.03492      9.46090     13.37767        -0.989293      0.217894      0.449703
      0.01294      9.38333      0.02904        -1.112629     -0.076746      0.080558
      4.14612      9.51162     13.41840         0.433014      0.454411     -0.011289
      0.09460      2.32337      6.59566         0.596937      0.156382      1.246513
      4.14389      2.38719      6.71789         0.035211      0.699504      0.106867
      8.34007      2.20633      6.66006         0.025821      1.165111      0.468054
     -2.09988      5.94174      6.72690        -0.065393     -0.199003     -0.306372
      2.04256      5.94752      6.75412         0.376490     -0.019778     -0.578498
      6.19151      5.96926      6.72511         0.136316      0.815025      0.033617
     -4.04049      9.54737      6.70800        -2.137869      0.986613      0.633858
      0.00742      9.53885      6.72188        -0.712259      0.017326      0.462917
      4.12094      9.49374      6.71744         0.970490      0.512727      0.172610
      2.07939      1.17008      3.36532         0.256184      0.313252      0.081326
      6.17399      1.10029      3.41692        -0.094729      0.130836     -0.020083
     10.27966      1.34915      3.37802         0.148313     -0.570132     -0.200160
      0.02428      4.80697      3.37412        -0.124307      0.162433      0.017273
      4.17168      4.86205      3.36189        -0.706110      0.487678     -0.421534
      8.05217      4.72306      3.40908         1.160882     -0.296263      0.367646
     -1.92605      8.36893      3.48298        -1.466952     -1.007741      0.100014
      2.10220      8.42426      3.48963        -0.258192     -0.314713     -1.574046
      6.22354      8.56863      3.25850         0.069741     -1.055139      0.689073
      2.03898      1.15908     10.10218         0.168031      0.191954      0.247348
      6.22069      1.17314     10.01668         0.119854     -0.508557      0.468471
     10.35330      1.42070     10.01634        -0.456031     -0.989800      0.309040
     -0.04322      4.71115     10.04166        -0.379912      0.543043      0.367735
      4.13019      4.72906     10.07644         0.481400      0.392487      0.024128
      8.22400      4.72204     10.07507        -0.031021      1.207230      0.219550
     -2.14775      8.43722     10.09021         0.988584     -1.352056      0.365815
      2.17873      8.26010     10.10946        -0.382697      0.237560      0.228957
      6.12094      8.41523     10.08923         0.790897     -0.091046     -1.425154
      0.00099      2.38827      2.53612         0.235196      0.119645      0.200359
      4.22868      2.52174      2.70286        -0.687610     -1.018486     -0.951666
      8.17149      2.31804      2.52758         0.144566      0.156388     -0.015378
     -2.15779      5.88306      2.54680         0.208506      0.327736      0.360693
      2.04343      6.10883      2.35084         0.051943     -0.480955      2.219041
      6.20739      5.98589      2.62701        -0.417020      1.187122     -1.065782
     -4.14244      9.55722      2.50491         1.158561      0.205598     -0.401254
     -0.09536      9.49255      2.52584         1.111089      0.411080      0.006143
      4.14217      9.47766      2.54582        -0.666699      1.194838     -0.610679
      0.01053      2.34799      9.26582         0.807769      0.309831     -0.709606
      4.14925      2.37287      9.26257        -0.072080     -0.032977      0.048769
      8.27280      2.46858      9.27446        -0.502906     -1.069045     -0.828757
     -2.14344      5.99244      9.15435         0.397928     -0.131676      1.006035
      2.06698      5.91625      9.22620         0.002833     -0.076278      0.334042
      6.19859      6.06045      9.18635        -0.241132     -0.399443      0.487166
     -3.92527      9.61276      9.20709        -2.144347      0.459243     -0.276021
     -0.00367      9.37610      9.31603         0.701455      0.768006     -0.417277
      4.13253      9.54376      9.25742        -0.384365      0.823421     -0.424517
      2.11662      1.21135      5.97176         0.449257     -0.351494     -0.767668
      6.20993      1.25281      5.95443        -0.072301     -0.764110     -0.201576
     10.49420      1.36310      5.88197        -1.395574     -1.548295     -0.375340
     -0.02598      4.64392      6.03921         0.376049      1.584266     -0.992565
      4.26883      4.82956      5.78538        -1.443421     -0.309347      0.946141
      8.19844      4.83841      5.95314         0.522748     -1.129778     -0.434030
     -2.27976      8.33819      5.98034         2.977035     -0.901907     -1.064603
      2.08531      8.52791      5.82609        -0.550609     -1.002421      1.231224
      6.23228      8.42164      5.79768        -0.208763      0.031803      0.392267
      2.06516      1.16217     12.68312         0.529714     -0.077712     -0.475059
      6.18128      0.97643     12.73397        -0.658737      0.834079     -0.924471
     10.40735      1.23579     12.49357        -0.244968     -0.261469      0.849603
     -0.05758      4.89494     12.67158         1.163879     -0.950367     -0.700583
      4.27790      4.82542     12.65997        -3.446870     -1.846167     -1.550963
      8.26992      4.78828     12.56954        -0.540943     -0.549564      0.555215
     -2.16340      8.22269     12.57046         1.034284      0.744842     -0.137979
      2.03121      8.37369     12.71673         0.824264      0.363238     -1.270120
      6.19311      8.32165     12.40652         0.098026      0.013742      2.337809
 -----------------------------------------------------------------------------------
    total drift:                                0.002873      0.002737     -0.011275


--------------------------------------------------------------------------------------------------------



  FREE ENERGIE OF THE ION-ELECTRON SYSTEM (eV)
  ---------------------------------------------------
  free  energy   TOTEN  =      -267.35070308 eV

  energy  without entropy=     -267.35070308  energy(sigma->0) =     -267.35070308
 


--------------------------------------------------------------------------------------------------------


    POTLOK:  cpu time      0.9014: real time      0.9045


--------------------------------------------------------------------------------------------------------


     LOOP+:  cpu time   6445.7216: real time   6491.7466
    4ORBIT:  cpu time      0.0000: real time      0.0000

 total amount of memory used by VASP MPI-rank0   869588. kBytes
=======================================================================

   base      :      30000. kBytes
   nonl-proj :      46748. kBytes
   fftplans  :      24160. kBytes
   grid      :      61358. kBytes
   one-center:       1119. kBytes
   HF        :        129. kBytes
   nonlr-proj:      24284. kBytes
   wavefun   :      26185. kBytes
   fock_wrk  :     655605. kBytes
 
  
  
 General timing and accounting informations for this job:
 ========================================================
  
                  Total CPU time used (sec):     6452.714
                            User time (sec):     6445.720
                          System time (sec):        6.995
                         Elapsed time (sec):     6500.368
  
                   Maximum memory used (kb):     2049312.
                   Average memory used (kb):          N/A
  
                          Minor page faults:      2049114
                          Major page faults:            2
                 Voluntary context switches:       137048
