unknown system                          
           1
    12.397785    0.000000    0.000000
    -6.198893   10.736797    0.000000
     0.000000    0.000000   13.447946
   Cd   S 
    36    36
Direct configuration=     1
   0.11972635  0.22056912  0.00295556
   0.44281540  0.22422611  0.99938630
   0.76223327  0.20519066  0.99954166
   0.11207506  0.55731223  0.99887628
   0.45199603  0.56907384  0.00050077
   0.75810858  0.54835758  0.00371786
   0.11512763  0.88116578  0.99477389
   0.43801429  0.87394151  0.00215953
   0.77736864  0.88588952  0.99780284
   0.11582697  0.21639354  0.49045884
   0.44541314  0.22233734  0.49954757
   0.77545267  0.20549237  0.49524727
   0.10732422  0.55339969  0.50021798
   0.44172140  0.55393845  0.50224180
   0.77738590  0.55596265  0.50008486
   0.11870565  0.88921948  0.49881193
   0.44481104  0.88842573  0.49984454
   0.77450579  0.88422470  0.49951430
   0.22221171  0.10897865  0.25024792
   0.54923072  0.10247851  0.25408466
   0.89198108  0.12565656  0.25119241
   0.22581369  0.44770997  0.25090247
   0.56290580  0.45284031  0.24999282
   0.86943211  0.43989506  0.25350175
   0.23437626  0.77946198  0.25899711
   0.56187064  0.78461596  0.25949139
   0.90101892  0.79806197  0.24230455
   0.21844004  0.10795361  0.75120626
   0.55639027  0.10926347  0.74484846
   0.90125308  0.13232099  0.74482337
   0.21590702  0.43878562  0.74670596
   0.55336621  0.44045312  0.74929246
   0.88324438  0.43979981  0.74919042
   0.21967453  0.78582266  0.75031623
   0.56039815  0.76932621  0.75174738
   0.88559968  0.78377451  0.75024289
   0.11129873  0.22243758  0.18858760
   0.45851803  0.23486916  0.20098701
   0.76705711  0.21589687  0.18795318
   0.09992092  0.54793454  0.18938210
   0.44930357  0.56896245  0.17481033
   0.77944161  0.55751170  0.19534675
   0.11094138  0.89013691  0.18626742
   0.43436529  0.88411376  0.18782322
   0.77546863  0.88272662  0.18930894
   0.11019236  0.21868616  0.68901368
   0.44517847  0.22100369  0.68877189
   0.78223934  0.22991769  0.68965622
   0.10617179  0.55812191  0.68072478
   0.44223434  0.55102584  0.68606782
   0.78220398  0.56445636  0.68310422
   0.13104463  0.89530967  0.68464621
   0.43633812  0.87326800  0.69274767
   0.77776983  0.88888313  0.68838877
   0.22713698  0.11282225  0.44406446
   0.55923183  0.11668391  0.44277596
   0.90993608  0.12695628  0.43738776
   0.21416608  0.43252367  0.44908015
   0.56922939  0.44981403  0.43020531
   0.88660163  0.45063814  0.44268045
   0.20441558  0.77659938  0.44470284
   0.56533482  0.79426919  0.43323237
   0.89487887  0.78437158  0.43112038
   0.22069521  0.10824138  0.94312664
   0.54405087  0.09094255  0.94690792
   0.89700176  0.11509860  0.92903175
   0.22330770  0.45590345  0.94226909
   0.56976775  0.44942860  0.94140525
   0.89003263  0.44596896  0.93468106
   0.20842168  0.76584184  0.93474966
   0.55378951  0.77990544  0.94562615
   0.88706339  0.77505896  0.92255848
