72
Lattice="12.39778545 0.0 0.0 -6.19889272 10.73679715 0.0 0.0 0.0 13.44794642" Properties=species:S:1:pos:R:3:forces:R:3 ref_energy_eV=-269.011555 ref_gap_eV=2.2102 energy=-242.18334012 stress="-0.000474515356253537 -0.0004132939785810661 0.0005810855606762828 -0.0004132939785810661 -0.0014810067062488996 -0.0005481358163630496 0.0005810855606762828 -0.0005481358163630496 -0.001499815362928057" free_energy=-242.18334012 pbc="T T T"
Cd       0.09729875       2.49644631       0.31695680       0.35892840      -0.05080641      -0.15740463
Cd       4.09535756       2.28205588      13.42410859      -0.43299515       0.39598290       0.18908160
Cd       8.43560379       2.44298801       0.10273828      -0.60600623      -0.02885588      -0.15783553
Cd      -2.14457500       6.07524531      13.14003027      -0.19700168      -0.21986310       0.29958375
Cd       1.99637634       6.09801956      13.29589600       0.50331153      -0.26693202       0.04164219
Cd       6.14430435       5.87895465       0.26246290       0.42775530       0.29923795      -0.23338144
Cd      -4.29229550       9.57677737      13.23954857       0.39725204      -0.09928006       0.30001328
Cd       0.04486548       9.44787557       0.01889046      -0.36831463       0.72646158       0.01518112
Cd       4.18666737       9.51411055       0.05980530      -0.10945541       0.62411224       0.26228379
Cd      -0.11397699       2.40857508       6.52726835       0.14586088      -0.45376731       0.02750337
Cd       4.13820015       2.46176571       6.73587653      -0.14813891      -0.94023973      -0.35859928
Cd       8.11463480       2.21265043       6.72532164       0.56175342       0.21219839      -0.38398735
Cd      -1.94236266       5.83784527       6.69548010       0.18871493      -0.20621931      -0.36892799
Cd       2.12770800       6.05177671       6.93049736       0.26145247      -0.01341199      -0.31318686
Cd       6.18388285       5.78605011       6.76059399      -0.32589077       0.36880957      -0.28986401
Cd      -3.94680468       9.42830873       6.71001666      -0.58934419      -0.11155144       0.51080410
Cd       0.03988926       9.50458991       6.70341184      -0.07208520      -0.47023406       0.39234836
Cd       4.39762697       9.49001568       6.82828584      -0.47073921       0.61509379       0.29010341
Cd       1.92573351       0.94257032       3.45449866       0.44318811       0.53213296      -0.37138263
Cd       6.10171138       1.15547124       3.43258698      -0.88243280      -0.23425695      -0.79453719
Cd      10.24842149       1.21152870       3.28512998      -0.91373368      -0.37916099       0.03695991
Cd      -0.08665258       4.85015657       3.29169271       0.32927609       0.44100601      -0.12339928
Cd       4.00226953       4.62220438       3.31566421       0.17790608       0.90325223      -0.06402976
Cd       8.28375411       4.81453434       3.44706692      -0.05616461      -0.03310007      -0.18104001
Cd      -2.06187266       8.36766413       3.30313947       0.24036035       0.49108014       0.36241690
Cd       2.03756203       8.43120568       3.46819082      -0.19417800      -0.52872649       0.57348682
Cd       6.23401628       8.48726593       3.36302882      -0.39370230      -0.34104324       0.72919936
Cd       1.96700629       1.42603724       9.91517237       0.40863631      -0.63647044       0.37198997
Cd       6.16449681       1.29778115      10.10782241       0.34746245      -0.23582557       0.50137606
Cd      10.17212032       1.34159577      10.23937170       0.04776093      -0.10648414      -0.18181662
Cd       0.01700983       4.57331244      10.15123991       0.13593886       0.24025262      -0.62282086
Cd       4.36123910       4.74689510      10.08108695      -0.48558864       0.28549694       0.57706448
Cd       8.43321462       4.87633642      10.00795285      -0.46215863      -0.09073960      -0.16594616
Cd      -2.04707472       8.31964155       9.83274413       0.44560428       0.82154758       0.55386091
Cd       2.12509362       8.41499032      10.03763475      -0.21283751      -0.54239772      -0.06580877
Cd       6.13857316       8.33081383      10.16349382       0.17588093       0.34626364      -0.61236396
S       -0.08466572       2.33393984       2.75868376       0.56216959       0.60664050      -0.20455225
S        4.02392740       2.32119956       2.58752287      -0.34294769      -0.62932952      -0.46108316
S        7.99873156       2.31571177       2.62524449       1.69038325       1.08362835      -0.60587034
S       -2.13215291       6.15504891       2.41202071       0.09305442      -1.68913219      -0.46359167
S        2.12052702       6.10045831       2.39284273      -0.46973530      -0.43498289       0.42520594
S        6.20234173       6.09757903       2.69241470      -0.25318965      -0.89308874       0.17842961
S       -4.13025192       9.43052169       2.50220573       0.13015403       0.48107313      -0.96088870
S        0.00444095       9.55377336       2.56137038      -0.03302440      -0.12594206      -0.22908676
S        4.08429415       9.47245822       2.65303844       0.30910064       0.69896875      -0.71973736
S       -0.15008071       2.30550826       9.10006518      -0.18991740       0.34448497      -0.12993133
S        4.19098750       2.44186774       9.22110544      -0.60368865      -0.18721852      -0.04177891
S        8.18648542       2.52392049       9.18075487       0.20308535      -0.35429426       0.36540743
S       -1.95688369       5.98820939       9.18908211       0.55357579      -0.44965975       0.05080174
S        2.11895194       5.87081336       9.37239107       0.02961932       0.25960091       0.50865357
S        6.28657166       5.99107859       9.23859207       0.11876410       0.28187841      -0.02595220
S       -4.09809479       9.60155522       9.36165786      -0.42529434       0.11717762      -0.51322126
S        0.12650862       9.67876718       9.26866840      -0.65608065      -0.41388749      -0.27392168
S        4.11110578       9.68271596       9.37702658       0.58669520      -0.00456503      -0.25819789
S        2.04663925       1.02547203       5.87852139       0.11757578       0.64144494       0.78808295
S        6.15767319       1.02108616       5.78762511      -0.49779190       0.74631059       1.26439496
S       10.25750293       1.08988863       5.78390084      -0.00611792       0.21036622       0.59938861
S        0.29929091       4.75212285       5.83483063      -0.97728458       0.21429542      -0.17508230
S        4.06342111       4.70168180       5.84853005       0.19619149       0.67922972       0.04573835
S        8.26984466       4.73030761       5.98570247       0.48564631      -0.49224591      -0.27164722
S       -1.98895973       8.20835207       5.81756118       0.31435034       0.07664163       0.27540522
S        2.22580920       8.42630615       6.14888227      -0.30125527      -0.32777446      -0.85590616
S        6.24536446       8.23692097       5.97391696       0.77728695      -0.17816671      -0.39068404
S        1.89920901       1.23014781      12.53621169       0.53390365       0.27813877       0.00166730
S        6.17191942       1.26496188      12.65933060       0.79160139      -0.48680428      -0.06188047
S       10.55943401       1.39753115      12.71832271      -0.96305620      -0.92622772       0.01936440
S        0.02081582       4.68833790      12.58572663      -0.29747709       0.74632432       0.50513469
S        4.24001684       4.80666502      12.67138077      -1.11073945      -0.44858971      -0.35894825
S        8.06792707       4.74855404      12.43547716       0.78933901       0.16347770       0.97761704
S       -2.06521944       8.51325209      12.48415268      -0.19138304      -0.38690702      -0.06070306
S        2.11136283       8.50655652      12.56506386       0.08216646      -0.34160230      -0.03095347
S        6.09894191       8.25343524      12.61017405       0.27804467      -0.17282540       0.49975965
