72
Lattice="12.39778545 0.0 0.0 -6.19889272 10.73679715 0.0 0.0 0.0 13.44794642" Properties=species:S:1:pos:R:3:forces:R:3 ref_energy_eV=-265.41714021 ref_gap_eV=2.0451 energy=-238.84036096 stress="-0.003319600080885165 0.0021429135810792626 0.0017516469742260268 0.0021429135810792626 -0.014739145761725499 -0.0012841961075256755 0.0017516469742260268 -0.0012841961075256755 -0.008703737970559707" free_energy=-238.84036096 pbc="T T T"
Cd      -0.04812523       2.37967473      13.39678774       0.64276432       1.00268686       0.70385995
Cd       4.14615984       2.41588082       0.08737198       0.44192005      -0.22584247      -0.18335931
Cd       8.47183527       2.38153413      13.39764962      -1.86716622      -0.50396354       0.99984034
Cd      -1.95403399       5.97275646      13.39431614      -2.15043326       0.74881756       0.79553029
Cd       2.20847486       6.07505409       0.03890128      -0.31596290      -0.61005831       0.62457564
Cd       6.26925059       6.08677309      13.25710688       0.21483490      -0.53453929       1.06466154
Cd      -4.19806930       9.62936309      13.37815400       0.51918973       0.44268874       0.73332991
Cd       0.19646145       9.45090453      13.36913204      -3.30225972       1.32732268       1.66773998
Cd       4.14192302       9.55749924       0.09675058      -0.32249578       0.29726371      -0.64868972
Cd       0.00828557       2.38624630       6.75305897      -0.53469960       0.16490366      -0.01482841
Cd       3.93190335       2.41657088       6.78322621       1.36846316       0.24261159       0.11081016
Cd       8.22583804       2.57934158       6.85308963      -0.18479936      -0.70375507      -0.20051062
Cd      -2.18792702       5.89063306       6.77748044       0.71993920       0.60224342      -0.34149892
Cd       2.06134167       5.98153744       6.72477982       0.01516913      -0.00925254      -0.27343381
Cd       6.10152703       6.10280291       6.82015884      -0.04530499      -1.60625768       0.21523353
Cd      -4.06387492       9.54692231       6.83580875       0.09333683      -0.19528513      -1.15977498
Cd       0.08335918       9.69505908       6.65048489      -0.14609911      -2.93076793       1.18732562
Cd       4.14428226       9.61666769       6.77989663      -0.14297066      -0.83393604      -0.19794362
Cd       1.98314021       1.18957485       3.52258400       0.37642525      -0.06688504      -1.95056829
Cd       6.19411852       1.08636148       3.47030470       0.72722342       1.00779243      -0.82390470
Cd      10.28309339       1.21677577       3.48079208      -0.26164228       0.51750817      -0.78644401
Cd      -0.06598572       4.66376319       3.30676920       0.09039957       1.60915644       0.50444108
Cd       4.13476503       4.76467051       3.37496468       0.33426507       0.25506260      -0.51007959
Cd       8.29588497       4.76932856       3.47646413       0.17843030      -0.20400611      -1.84901946
Cd      -2.17758423       8.34181432       3.37571239       0.27714722      -0.21680586      -1.31141954
Cd       1.93441147       8.31485659       3.37057083      -0.42083248       2.09394862       0.38794728
Cd       6.20355051       8.41818935       3.35478146      -0.36197059      -0.35694200      -0.12032508
Cd       2.00766031       1.21811777      10.28327642       0.44114290       0.03758455      -1.14826976
Cd       6.29669854       1.08269916      10.09836097      -1.53482225      -0.14137738       0.71814571
Cd      10.21740267       1.01566021      10.15738872       0.57545616       0.69696308      -0.35009722
Cd      -0.01317618       4.78748170      10.09121716      -0.46287963      -0.28576034       0.34826785
Cd       4.29578586       4.70888147       9.97577662      -1.61310935      -0.22196369       1.00843033
Cd       8.25520387       4.62244488      10.10828744       0.08169116       0.52443350       0.82590791
Cd      -2.05731077       8.29177215      10.05583763       0.10905111       1.01071800       0.74019628
Cd       2.03936430       8.26314237      10.08643802      -0.04376457      -0.08591016      -0.26935624
Cd       6.32943905       8.47239525      10.23592943      -0.71920325      -0.55310237      -0.53239511
S       -0.05546019       2.46487304       2.54338603       0.27900471      -1.62983328      -0.48119913
S        4.30392314       2.35387818       2.55693538      -1.29034505       0.39100312       0.25182850
S        8.25738873       2.44112346       2.46278778       0.00296959      -0.36969538       0.54019784
S       -2.08225865       5.98619345       2.54086777       0.10493310      -0.15429811      -0.21435829
S        2.02487755       6.14315458       2.68908431       0.20726167      -2.43741832      -1.11389284
S        6.34578907       5.98149364       2.52894160      -0.95715632       0.36272014      -0.26799163
S       -4.12448441       9.51159750       2.46996079      -0.65588445       0.93650600       0.12931057
S       -0.20434761       9.67619013       2.52972386       0.74893780      -1.59849985      -0.89504703
S        3.95597403       9.67896259       2.49758542       0.49496323      -0.63327411       0.62152667
S       -0.00422814       2.29282886       9.28685393      -0.55601629       0.36650370       0.06948973
S        4.14219007       2.39584832       9.25395890      -0.10469862      -0.94387109       0.32585327
S        8.19384084       2.28026466       9.47142941       1.07887001       0.60510069      -1.45266318
S       -2.21403440       6.05088019       9.30379592       0.41048600      -1.42660214      -0.35780069
S        2.02827615       5.85614690       9.22994961       0.56036714       0.30432313       0.34521448
S        6.20140092       5.82914632       9.32461536       1.21106408       1.60434975      -0.29870130
S       -4.12396501       9.55186468       9.26077594       0.29672498       0.45900469       0.34561947
S        0.00254304       9.54315799       9.25917119      -0.09861184      -0.69594112      -0.42380706
S        4.10800051       9.53449039       9.26980556       0.27770478      -1.02434385       0.25437174
S        2.06704558       1.32423640       5.84791750      -0.72579773      -1.28473690       1.06738544
S        6.23999895       0.99890909       5.82079339      -0.11829763       3.91092785       0.73317950
S       10.22418971       1.11145671       5.89426719       0.25524247       1.22007765       0.77249176
S        0.00427333       4.78579344       5.89405283      -0.46187187      -0.12933295       0.11521269
S        4.12360616       4.73271115       5.87159597       0.16111911       0.26778314       0.41798474
S        8.20714664       4.85678933       5.78867244      -0.42326527      -0.25305919       2.08291647
S       -1.95654690       8.39574214       5.68034560      -0.52415522      -0.22701864       2.65630685
S        2.06362770       8.35259546       5.89512248       0.33235066       0.00675229       0.26414571
S        6.13463005       8.24163829       5.94376814       0.42383454       2.03568574      -0.54657689
S        2.01676313       1.26587654      12.66052680       0.42375758       0.17563598       0.69959284
S        6.18190993       1.01572216      12.63748482       0.03377154       1.15152177      -0.10475223
S       10.37900439       1.40235960      12.55716292       0.40694585      -2.00391640      -0.25563131
S       -0.03685750       4.92345582      12.77966471       2.00358401      -1.30932039      -1.19951766
S        4.22731097       4.83342520      12.76710944      -0.52329284      -0.35089771      -0.87690792
S        8.18163900       4.62537131      12.75788199       0.56359623       1.48502748      -1.09351424
S       -2.30397438       8.33992626      12.64031494       1.26290740      -0.14161297      -0.51120147
S        1.91721158       8.33330380      12.61641067       3.24060140      -1.08014068      -1.19048941
S        6.24281213       8.43718135      12.69694209      -1.11803823       0.11559530      -0.37290100
