72
Lattice="12.39778545 0.0 0.0 -6.19889272 10.73679715 0.0 0.0 0.0 13.44794642" Properties=species:S:1:pos:R:3:forces:R:3 ref_energy_eV=-265.46611875 ref_gap_eV=2.1756 energy=-238.89534742 stress="-0.00781906949418894 0.00525682719411705 -0.0003079117705223227 0.00525682719411705 -0.012970194939946037 0.0028773909069388917 -0.0003079117705223227 0.0028773909069388917 -0.006821889626964154" free_energy=-238.89534742 pbc="T T T"
Cd       0.02407929       2.52500684       0.02804421       0.03366216      -2.20975942       0.71544166
Cd       4.24400614       2.49634431      13.27114869      -0.80495348      -1.20224677       0.81867811
Cd       8.41959311       2.45677224      13.31303165      -0.63550173      -0.98911655       0.93673615
Cd      -2.02726188       5.96499891       0.00882078       0.56364112      -1.19564976       0.75076768
Cd       2.08785030       6.19580107       0.06953893      -0.04766259      -2.45044412       0.74972783
Cd       6.13449609       5.96432636       0.17769229       0.29929022       0.38613014      -0.61982475
Cd      -4.03217056       9.44399057      13.42895657      -0.75599688       0.19271969       0.28809643
Cd      -0.09183033       9.50444250      13.32996059       0.34753993       0.27460811       0.58208056
Cd       4.09558171       9.66733753      13.42943586      -0.28593673      -0.29860007       0.21376852
Cd      -0.07732437       2.27937243       6.82293154       0.58647498       0.32131083      -0.44218815
Cd       4.14488070       2.41265323       6.78916764       0.30729338      -0.14152696      -0.10492471
Cd       8.25914078       2.38397063       6.72353413       0.07651885      -0.68553065      -0.11727304
Cd      -2.16131052       5.85168007       6.53521003      -0.11464240       0.61487039       0.47527999
Cd       2.07534658       5.99947369       6.60811713       0.26687949      -0.84456596       0.43395995
Cd       6.22287755       5.97672242       6.73151643      -0.19979871       0.86181221      -0.49354908
Cd      -3.92899495       9.51645858       6.83454048      -2.31253989       1.41265599       0.52428055
Cd       0.20870848       9.44894893       6.73000098      -2.05063344       0.65671512       0.39965899
Cd       4.11876935       9.59952596       6.72447213       0.09694434      -0.35161135      -0.45160844
Cd       2.06430095       1.18847605       3.48588711      -0.30050875      -0.15922435      -0.80426787
Cd       6.10977459       1.22349540       3.19119795      -0.01785856       0.17777035       0.58389743
Cd      10.25734598       1.29264939       3.29942340       3.13394376      -1.90350732       1.23642907
Cd       0.00824416       4.72394552       3.44970743       0.48549273      -0.07555629      -1.13102765
Cd       4.17024805       4.75574748       3.38246420      -0.60285430       0.59407427      -0.99173777
Cd       8.23340812       4.73022783       3.38190530      -0.17794854      -0.13734452      -0.23366495
Cd      -1.96855552       8.37786902       3.24178819      -1.25682752      -0.55664844       0.72513699
Cd       2.20414122       8.43473797       3.33929831      -0.30899619       0.54123799       0.36098855
Cd       6.08578507       8.29858358       3.43041473       0.94177338       0.97641022      -0.41526534
Cd       2.08866669       1.21607241      10.24841666      -0.28400193       0.11470893      -0.11180686
Cd       6.21020527       1.22105160      10.06754716       0.55595429      -0.49454187      -0.31055466
Cd      10.30349004       1.41493722      10.19818360      -0.09721642      -1.79117043       0.61084541
Cd      -0.00681221       4.75361752      10.07837988      -0.48936907       0.19038701       0.29217295
Cd       3.99878891       4.87666916      10.13369680       1.18110826      -0.48453765      -0.04829779
Cd       8.21830923       4.81570025      10.04567945       0.59529833      -0.90567583       0.48534566
Cd      -2.03820832       8.29385992      10.28347532      -0.30029281       0.37565580      -1.67701891
Cd       2.07469340       8.34635534      10.08715910       0.32120211       0.93057981       0.26156710
Cd       5.99908847       8.25253324      10.02673237       1.09643269       0.22358025       0.54567323
S       -0.00415381       2.36942163       2.51001711       0.17525130      -0.02660717       0.46715700
S        3.97170068       2.51434434       2.55716050       0.79469497      -0.84418337      -0.87463184
S        8.42047893       2.25262363       2.64312865      -3.76670831       1.91044729      -1.75431307
S       -2.05780606       5.79569229       2.60870352      -0.19062074       0.95305916      -0.43010679
S        2.05578547       6.15668488       2.60146798      -0.02485721      -1.37964793      -0.12944318
S        6.13330131       6.07700153       2.66316743       0.72944566      -1.41909631      -0.70974568
S       -4.15189213       9.59545371       2.48822458       0.19427920      -0.53152555       0.32045835
S       -0.00526558       9.52692353       2.56316635       0.78362910       0.44304770      -0.68762725
S        4.24717222       9.50405007       2.47103017      -0.72797711       1.04441174       0.03882097
S       -0.22697865       2.38715484       9.28751825       2.49792081       0.67875197      -0.32983605
S        4.19511305       2.44397376       9.38451789      -0.60092742       0.23470918      -0.42761488
S        8.42295055       2.27063998       9.18439416      -2.08324336       1.02025543       0.13204142
S       -2.18174685       6.00160988       9.26026962       0.83452981      -0.21034308      -0.41692123
S        2.05512647       6.03293610       9.45701590      -0.67569950      -0.48116334      -1.39813505
S        6.29524943       5.92961375       9.18337695      -1.24608005       0.11750178       0.34194409
S       -4.13134355       9.65769664       9.27722533      -0.09159038      -0.62753400       0.71666208
S        0.00845517       9.43136109       9.21698539      -0.25511839       0.54806801       0.73526754
S        4.19749027       9.53814015       9.14687035      -1.01439329       0.57021857       0.86794831
S        2.11055957       1.21691245       5.88269362      -0.27601868       0.13590600       1.13483954
S        6.27259533       1.07083339       5.99927440      -0.64198841       0.54436533      -0.66244024
S       10.33503143       1.18967631       5.91038160      -0.26784972       0.12858114      -0.58095339
S       -0.01912774       4.80492942       5.81630474       0.21545823      -0.48349614       1.49960161
S        4.26141783       4.78484431       5.72868316      -0.69488994      -0.01935233       2.00934475
S        8.11685983       4.63991537       5.87833433       0.49915113       0.66127768      -0.14475547
S       -2.20235172       8.40122478       6.00086086       2.83368322      -1.79164586      -1.64182345
S        2.02282032       8.30847292       5.95068240       1.73354770      -0.19975866      -1.09646618
S        6.21265154       8.54494808       5.76934626       0.22727136      -0.59276511       1.69645691
S        1.98483518       1.09686229      12.77110133       0.73791915       0.62517082      -0.41633401
S        6.21418725       1.19468449      12.59340890       0.50275502      -0.21601357       0.21434998
S       10.38656648       1.22740767      12.61540988       0.23833924      -0.02483119       0.27337242
S        0.09561631       4.64137955      12.73444949       0.02517155       2.87109280      -1.18107918
S        4.12204249       4.75278692      12.63228705      -0.00447577       1.38155378       0.08528138
S        8.41993857       4.70518715      12.66064420      -1.18958270       1.26502739      -0.51329039
S       -2.07931777       8.18617693      12.64722799       0.17027160       0.83282580       0.50901958
S        2.04931836       8.30969369      12.72079794      -0.02478740       2.24777825      -1.24044242
S        6.09438436       8.52866487      12.63873897       0.73757924      -1.33405502      -0.44412904
