72
Lattice="12.39778545 0.0 0.0 -6.19889272 10.73679715 0.0 0.0 0.0 13.44794642" Properties=species:S:1:pos:R:3:forces:R:3 ref_energy_eV=-266.44331013 ref_gap_eV=2.1454 energy=-239.79423293 stress="-0.0041823908881244865 -0.001173988164339091 0.0011385516217863414 -0.001173988164339091 -0.007930718807802491 -0.0010513478152982421 0.0011385516217863414 -0.0010513478152982421 -0.008283432985917154" free_energy=-239.79423293 pbc="T T T"
Cd      -0.04112104       2.47890303      13.42230172       0.48181909      -0.29354790       0.34492959
Cd       4.10384359       2.40200029       0.14863894       0.18224396      -0.08140909      -1.16892306
Cd       8.36037626       2.21852883       0.12513664      -1.52294605       0.63850077      -0.75323446
Cd      -2.18238694       6.05017328      13.36749516       1.89790056       0.50886363       0.99856418
Cd       2.10259666       5.96452606       0.02269691       0.64392215       0.04518483      -1.52272117
Cd       6.22326634       6.13477731      13.41413358      -0.52285550      -1.67073208       0.53867535
Cd      -3.94184321       9.57970895       0.03558165      -0.71744264       0.21057531      -0.09002717
Cd       0.00488889       9.53080928       0.01839908       0.32459885      -0.04686535      -1.40803463
Cd       4.18367504       9.59722217       0.14276609      -0.22829505      -0.71871247      -0.18764472
Cd       0.03786811       2.37815751       6.72925906       1.07795476      -0.11819540       0.22854718
Cd       4.18172815       2.36867316       6.64495388      -0.04564078      -0.58085013       1.42276536
Cd       8.21303999       2.39718033       6.94681012       0.59251035       0.26388950      -1.96640559
Cd      -2.01504374       5.88277072       6.65776144      -1.26871801       1.00257704      -0.68558306
Cd       2.08022095       5.78676990       6.73258971      -0.10665756       0.28889866       0.23892604
Cd       6.10280251       6.17594304       6.72053793       0.30701146      -0.63392662      -0.18973749
Cd      -4.09010765       9.51161521       6.90109678      -0.66567705       0.76464490      -1.32003045
Cd       0.00082545       9.56659234       6.73848328      -0.39467129       0.16365854      -0.36395939
Cd       4.15204587       9.56943888       6.76671643       0.35280831       0.15309715      -0.27127397
Cd       2.07617047       1.09961295       3.35254305      -0.22668255       0.60985113       0.07569766
Cd       6.34713937       1.25922639       3.22592297      -0.36035597       0.13970711       0.60251388
Cd      10.32814793       1.20546563       3.36787546      -0.68817011       0.62183086       0.83741731
Cd       0.17686278       4.75672249       3.47092909      -0.37920989       0.10434121      -0.97149956
Cd       4.15436655       4.74150093       3.37621507      -1.00637491      -0.13839912       0.26291812
Cd       8.20044353       4.87399247       3.37046406       0.31280268       0.30926802       0.30879700
Cd      -1.92693535       8.43610767       3.40945960      -0.30821782      -0.37794322      -0.74077832
Cd       2.08276882       8.38711738       3.37946961      -0.43934546       0.04946813       0.31649016
Cd       6.16965528       8.33134917       3.30556803       0.11723739      -0.11596770      -0.36496198
Cd       1.85953987       1.20016842       9.98542458       1.93560173       0.46223537       1.05116634
Cd       6.32470768       1.15658540       9.97636618      -1.08520106       0.39802679       0.62080221
Cd      10.32605450       1.19943918      10.10058809      -0.06061987      -0.20272018       0.24266788
Cd      -0.05715490       4.76319066      10.08413466      -0.00882915       0.35435079       0.04074534
Cd       3.91771924       4.78957301      10.03902151       2.43195213      -1.66846945       0.63865148
Cd       8.33755120       4.79717273      10.10997260      -0.53774754       0.09922329       0.15217473
Cd      -2.15715330       8.38198261      10.09130954       0.19342391      -0.03629811      -0.62232733
Cd       2.05359268       8.28642587       9.95304273      -0.21619436       1.47468277       0.79347840
Cd       6.37057050       8.31308555      10.07634144      -1.07013982      -0.54409024      -0.02363174
S       -0.13218637       2.33399256       2.60780883       1.58112662       0.79640451      -0.66777555
S        4.15202951       2.39729274       2.53463599      -0.14708148      -0.32675548       0.80317459
S        8.31790294       2.56317916       2.50365219       0.06999653      -0.53801005       0.55982297
S       -2.06996184       5.94328717       2.56263435       0.52877965       0.47629264      -0.17474914
S        2.10743645       6.10949505       2.35125993      -0.07479252      -0.63614846       2.17952824
S        6.07415638       5.88646020       2.59029180       0.76680365       1.00521050      -0.81412771
S       -4.13404509       9.54099013       2.53471561       0.13807835      -0.52318800      -0.25111151
S        0.01391925       9.66367425       2.34435723       0.19778028      -0.34332276       2.03316326
S        4.09242530       9.65944631       2.71803613       0.18146784      -0.95768683      -0.83485476
S        0.00632349       2.37712818       9.27927924      -1.36500156       0.95862751      -0.48483779
S        4.13250461       2.38573544       9.25588277      -0.20408629      -0.23244088      -0.13339440
S        8.25975738       2.38768782       9.25883136       0.76168870       0.46452814       1.51735807
S       -2.14200122       5.98364926       9.04230719       0.51011500       0.30697718       1.48527991
S        2.14336306       6.01276799       9.47517641      -2.58931784      -0.14961897      -1.95142260
S        6.13688948       5.87697263       9.21213216       0.25700349       0.41603689       0.27786039
S       -4.21644610       9.68560856       9.22423437       0.54233316      -0.92416461       0.83938009
S       -0.04794260       9.59594095       9.24209566      -0.03583246      -0.93271417      -0.11999622
S        4.08033138       9.56619229       9.25502990       0.62867324      -0.12172782       0.32407132
S        2.21858867       1.28136330       5.86504669      -1.29548129      -0.81279118       0.05190929
S        6.21003294       1.34588404       5.94874536       0.92328384      -1.30974612      -0.97447567
S       10.54745236       1.22067409       5.94097352      -1.82202279      -0.46493778      -0.26705057
S       -0.14908231       4.69536728       5.90229938       1.73554582       0.14670014      -0.03149897
S        4.14482565       4.58215860       5.91493588      -0.06471313       2.25357396      -0.43275179
S        8.25796181       4.77288191       5.88651351      -0.43360487       0.00205095       0.23287487
S       -2.27978091       8.44272153       5.80815515       1.70984801      -0.74225791       0.52293117
S        2.10541555       8.33477732       6.02433559      -0.37408808      -0.45974035      -0.57426572
S        6.27644925       8.45532278       5.74784635      -0.36591911       0.04008115       0.91637665
S        2.10887955       1.20047893      12.56926648      -0.55428880       0.07663492       0.10600329
S        6.06440037       1.07929710      12.51614722       0.73480400       0.85142292       0.36614932
S       10.30641523       1.18282516      12.74256371       0.85900597      -0.15597888      -1.08226958
S        0.10173381       4.82459408      12.61328766      -0.96658882       0.00667786      -0.18432348
S        4.19263523       4.68009214      12.53691879       0.06344617       0.57071273       0.61318575
S        8.32724207       4.97622342      12.67616124      -1.45270664      -1.86180449      -0.87148264
S       -2.01349055       8.40940579      12.52296089       0.00809358      -0.36718371       0.23781832
S        2.05209534       8.35953433      12.61755523       0.54324654       0.15060327      -0.20893924
S        6.23688841       8.30406815      12.59677102       0.01261038       1.90293442      -0.07271427
