72
Lattice="12.39778545 0.0 0.0 -6.19889272 10.73679715 0.0 0.0 0.0 13.44794642" Properties=species:S:1:pos:R:3:forces:R:3 ref_energy_eV=-266.90636331 ref_gap_eV=2.1025 energy=-240.22275875 stress="-0.00158134912662433 0.0031693823540281684 0.0014900728914693199 0.0031693823540281684 -0.011635918841888523 0.0019150388853308626 0.0014900728914693199 0.0019150388853308626 -0.007478993142476893" free_energy=-240.22275875 pbc="T T T"
Cd       0.15260354       2.33539693       0.03256797      -1.03450803       0.72594955       0.38325360
Cd       4.25023026       2.44237204       0.03948048      -0.65420450       0.22692047      -0.20169106
Cd       8.23405690       2.28820130      13.42217141       0.03496224       0.71736773      -0.97539278
Cd      -2.07822806       5.93895917       0.07192258      -0.32857196      -0.30590613      -2.99366288
Cd       2.08891372       5.98993405       0.15765498      -0.06559058      -0.52481917      -1.26306132
Cd       6.19880755       5.96607635       0.00120467       0.10170538       0.02258602      -0.04146243
Cd      -4.12265952       9.55796983       0.00723553      -0.38591610      -0.81578214       0.21861323
Cd      -0.02007548       9.60610096       0.02137699      -0.88858386      -0.43877023       0.22598381
Cd       4.05566270       9.52480870      13.39945501      -0.14724485       0.54848687      -0.58092370
Cd      -0.03256470       2.45695895       6.72286618      -0.01211620      -0.44169835       0.43234110
Cd       4.20146506       2.46954817       6.55582869      -0.79611775      -1.05101360       0.94763006
Cd       8.26159666       2.38849125       6.72379193       0.37779938      -0.55638871       0.13961971
Cd      -2.03981911       6.01431066       6.50115822       0.46993364      -1.41714080       1.13406386
Cd       2.04222093       6.08261021       6.59450472      -0.19321805      -1.31218518       0.78411322
Cd       6.19688726       5.94828547       6.67027919       0.18363446      -1.57010538       1.02651056
Cd      -4.13558998       9.54433958       6.72354301       0.03597827       0.04381495       0.25029991
Cd       0.03701582       9.56440053       6.69556348      -0.64864958      -0.13405346       0.12766081
Cd       4.21089748       9.33574573       6.67990093       0.09445499       0.96573834       0.34405079
Cd       2.14850380       1.13310413       3.21564807      -0.66737547      -0.09633144       0.97603805
Cd       6.13527244       1.10945333       3.36482735       0.98568045       0.87160923       0.32522989
Cd      10.26137712       1.29943827       3.36922106       0.43234301      -0.55552510      -0.61206879
Cd      -0.00834086       4.78202386       3.36052320      -0.13605697       0.31652554      -1.12439462
Cd       4.13799298       4.77414777       3.36237552       0.11225380      -0.19752295      -0.08459783
Cd       8.24666086       4.68497094       3.45536632       0.00665068       0.17740575      -0.74439521
Cd      -2.06557829       8.35008810       3.36494852       0.54527622      -0.84311984      -0.36064671
Cd       2.16689920       8.39357277       3.48113823      -0.98865208      -0.33655622      -0.69868399
Cd       6.19018824       8.58615097       3.38764865      -0.10314601      -0.61027528      -0.30756644
Cd       2.07990592       1.21652228      10.09107649      -0.16484425       1.11155373       0.43909146
Cd       6.13376325       1.14704801      10.08259231       0.22475253      -0.02427528       0.10074417
Cd      10.52039971       1.18575448      10.05462583      -0.88549647       0.62418643       0.28832637
Cd      -0.00224102       4.91423979      10.19113190      -0.00097073      -0.45609907      -0.72921403
Cd       4.14437387       4.85281500      10.04716612       0.11928098      -0.38377924      -0.62344944
Cd       8.27449835       4.80959467       9.96293329       0.37078231      -0.38627673       0.41975634
Cd      -2.09076179       8.36581450      10.09193528      -0.32472470       0.31414171      -0.11238710
Cd       2.14632241       8.36464816      10.19614193      -0.13618817       0.33023270      -0.09673715
Cd       6.20227714       8.34917064       9.98983591       0.49725956       1.65034608       1.22011840
S        0.06634284       2.37889728       2.69625301      -0.12034875      -0.20146635      -0.98701378
S        4.16323258       2.28254784       2.63039990       0.05505770       1.27049124      -0.75036154
S        8.35029829       2.35491804       2.34139990      -0.99325904       0.28151455       1.48724849
S       -2.09190778       5.94488051       2.28682988       0.05913365      -0.05177047       3.93960762
S        2.11447194       5.97728148       2.51456372      -0.32244626       0.05675258       1.31319078
S        6.17469324       5.93440795       2.53840344       0.34793649       0.39131614       0.31956389
S       -3.97523534       9.50520084       2.53060269      -1.38296323       0.16924769      -0.10003136
S       -0.08969320       9.62767065       2.58844365       0.77311016      -1.41206327      -0.42291665
S        3.97126025       9.49193488       2.40014981       1.25218124       0.84729515       0.81107111
S        0.02607961       2.42877475       9.25251527       0.29766570       0.88361259      -0.13285055
S        4.14206224       2.32793700       9.35378785      -0.15220929       1.06119317      -0.83499002
S        8.13583073       2.33770438       9.22222942       0.88617864       0.26161410       0.15689460
S       -2.00457883       6.03146988       9.22502242      -0.37170059      -0.21051706      -0.70894755
S        2.05525708       6.02849998       9.28295644       0.19687430       0.06917572      -0.76912779
S        6.27490925       6.15234281       9.40295072      -0.42684085      -2.10732453      -1.38306354
S       -4.20922079       9.77338144       9.26888343       0.39425184      -2.06709902      -0.46545353
S       -0.02749252       9.55928305       9.20506177       0.35489083      -0.48075467       0.19929614
S        4.27676946       9.64266319       9.26261521      -1.14540603      -0.69756021      -0.50289559
S        1.95400951       1.18091562       6.01191023       0.99711294       0.03436757      -0.85152176
S        6.19283337       1.19204142       5.89516040       0.24433567      -0.13323749      -0.23917759
S       10.42081053       1.23557644       5.76225825      -0.69469835      -0.79788209       1.14770928
S        0.02183139       4.67383087       5.74241446       0.10131720       1.14834805       1.04828063
S        4.13827590       4.75793800       5.90940218      -0.26021750       0.78704275      -0.14225974
S        8.31624945       4.72228228       5.94519147      -0.35352919       0.13508691      -0.16744988
S       -2.16277011       8.20500927       5.78842795       0.44000020       1.91674276       0.39697739
S        2.06422831       8.34891392       5.89664815      -0.02593213       0.70496026       0.14437199
S        6.25654956       8.13317999       5.96662171       0.08833976       2.06977788      -1.04232043
S        1.96105027       1.03701473      12.63340753       1.20032476       1.22081960      -0.31145234
S        6.18415672       1.15817938      12.62213654      -0.21441362       0.13092617      -0.23722861
S       10.31146374       1.32373059      12.56013182       0.54922932      -0.73112079       0.17394083
S       -0.00707517       4.84627736      12.57948974       0.34591339      -0.52950487       1.11305241
S        4.12754277       4.88290230      12.47150959      -0.26661677      -0.58594539       1.31495169
S        8.20093448       4.74982077      12.56364080       0.26021088      -0.16529623      -0.10127233
S       -2.24765936       8.26213913      12.59248516       1.00571279       0.38032242      -0.02233938
S        1.90844337       8.30808178      12.77222544       0.59778060       0.29750144      -0.85548696
S        6.12927080       8.39076972      12.77082981       0.25245191      -0.13580713      -0.77110581
