72
Lattice="12.39778545 0.0 0.0 -6.19889272 10.73679715 0.0 0.0 0.0 13.44794642" Properties=species:S:1:pos:R:3:forces:R:3 ref_energy_eV=-267.73120231 ref_gap_eV=2.1825 energy=-240.98044972 stress="-0.007220331123183994 -0.0017058140747524759 0.003036837073287545 -0.0017058140747524759 -0.0037709622157532357 -0.00029752922606121704 0.003036837073287545 -0.00029752922606121704 -0.00736256079189943" free_energy=-240.98044972 pbc="T T T"
Cd       0.14234865       2.44387047      13.44764196      -0.44733161      -0.18652017      -0.28372366
Cd       4.11492882       2.32762456      13.41829693       0.41730052       0.41167047       0.13105593
Cd       8.22962798       2.51169901      13.33734957       0.18251763      -0.69359355       0.36841616
Cd      -2.11263626       5.95981067       0.00682618       0.49981688       0.50287423      -0.17911721
Cd       2.07963590       5.88908449       0.00227364      -0.10463492       0.67330994      -0.14047551
Cd       6.10318164       5.99343940      13.41165539       0.31632030      -0.67216747       0.41620961
Cd      -4.15171869       9.52756838      13.40652997      -0.29290864       0.22384374       0.47731223
Cd       0.05073131       9.56622203      13.43612621       0.09598803      -0.03871618       0.10592794
Cd       4.28171214       9.57718709       0.02487763      -1.47687323       0.79922143       0.30262648
Cd      -0.04925256       2.36256994       6.66410658      -0.28264832      -0.26761394       0.16763408
Cd       4.13465754       2.38517423       6.72577927      -0.17627997       0.55736975      -0.10025887
Cd       8.35452476       2.28766543       6.77427552      -0.94655264       1.02223249       0.11478406
Cd      -1.95533886       6.05197470       6.53947761      -0.80921000      -1.17267944       0.60977500
Cd       2.04684835       6.03951475       6.75360226       0.33921270      -0.36683689      -0.40653595
Cd       6.18614923       5.93911743       6.75659013       0.51910715       0.56961580      -0.82660314
Cd      -4.04258712       9.48720199       6.94974594      -0.43785650       0.07709327      -2.66636093
Cd       0.13428773       9.55794449       6.69197288      -0.71106354       0.20326951       0.56091339
Cd       4.12691265       9.50849392       6.96850246      -0.07536080       0.18017176      -1.00531017
Cd       2.11724179       1.20749553       3.37811002      -0.16599272      -0.83322118       0.55275505
Cd       6.26999675       1.38278867       3.43208954      -0.81226899      -0.52382941      -0.15548027
Cd      10.30363962       1.23425915       3.34036029      -0.20689336      -0.05042600      -0.07473311
Cd       0.02089052       4.83531273       3.34250080       0.11390075      -0.67485100       0.07799809
Cd       3.93682273       4.72370598       3.26397864       0.58876504       1.36745849       0.61696881
Cd       8.44583091       4.83980458       3.23449846      -1.91966982      -0.43757257       1.02348180
Cd      -1.88052355       8.40869287       3.38380159      -1.60382083      -0.67621400       0.35714386
Cd       2.07245070       8.37135866       3.38103656      -0.27104610       0.50333984       0.14942641
Cd       6.16373751       8.31902042       3.30965204       0.35169633       0.12962858       0.19212910
Cd       2.01160386       1.19233646      10.04512217       0.60920193      -0.36013780      -0.24664186
Cd       6.16736014       1.25058294      10.18158964      -0.11236661       0.15567931      -1.46537184
Cd      10.36608447       1.28381795      10.08276122       0.18421173      -0.49257131       0.54698275
Cd       0.04484093       4.78950011      10.00670515      -0.84215580      -0.08872342       0.07338934
Cd       4.30137267       4.78218953      10.08816111      -0.57974607      -0.00989164      -0.88546366
Cd       8.12884551       4.66861826      10.20896576       0.94724421       0.18822359      -0.77825822
Cd      -1.89835300       8.41640822      10.02500148      -2.10253021      -1.23863825       0.87319056
Cd       2.07129473       8.24386005      10.17307481      -0.31226957       0.55373653      -0.57693449
Cd       6.15866390       8.30994493      10.08429469       0.25194860       0.13220290       0.31933350
S        0.10111987       2.19641575       2.46727590      -0.93336314       1.10612168       0.31567781
S        3.97890962       2.49818331       2.58743236       1.22337546      -1.20378377      -1.13507273
S        8.13224951       2.50663414       2.41737071       0.98642648      -0.25295718       0.04489224
S       -2.06219903       5.96215140       2.53243255       1.19228080       0.84841997      -0.42118032
S        2.02571049       6.10683876       2.49839203      -0.26808288      -0.66100941      -0.13535373
S        6.07918436       5.95545132       2.44119617       0.43925014      -0.24889048       0.49177076
S       -4.02173404       9.55518288       2.55409289      -0.46005683      -0.31655752      -0.09029292
S       -0.05129038       9.54423511       2.58171497       1.61608067       1.36313291      -0.73045664
S        4.07639924       9.52692750       2.56742195       0.24907041       0.53371235      -0.28834346
S        0.05280440       2.31788640       9.24658661      -0.63289415       0.76927332      -0.41314702
S        4.09556249       2.39303098       9.25697783       0.22814467       0.17783714      -0.06126895
S        8.30954336       2.31883263       9.29011761      -0.52780632       0.38954771      -0.06980033
S       -2.03768414       6.12630436       9.09147611      -0.20058287      -1.03248201       0.69852103
S        2.01316325       5.99010197       9.22950879       0.93519850      -0.32166508      -0.01178617
S        6.30914574       5.96270607       9.18038815      -0.32154702       0.18182554       0.64833037
S       -4.13338670       9.52051666       9.21383185      -0.14353592      -0.06415815       2.37824097
S       -0.09168292       9.61703822       9.47497510       2.52892283       0.87948348      -1.62114785
S        4.11477925       9.52294082       9.32697090      -0.13303492       0.24634489       1.05953248
S        2.03838363       1.26041967       5.91525930       0.24277904      -0.67611792       0.05902790
S        6.18807473       1.24345328       5.90000825       0.11966428      -0.29277699       0.27553070
S       10.20048887       1.11325383       5.92597140       1.27654621      -0.27806455      -0.59550209
S        0.00172119       4.73156693       5.91618667       0.48784689       0.04318012      -0.54499589
S        4.23506064       4.87484637       5.80299020      -1.17129701      -0.59954417       0.16524001
S        8.23828994       4.72625103       5.89669871       0.45549550       0.10900604      -0.34296814
S       -2.00482412       8.30430994       5.89539843      -0.08205896       1.53041289      -0.18640704
S        2.11503015       8.40164094       5.90007119       0.05510758      -0.26742686      -0.00372102
S        6.01652943       8.42588463       5.87877220       1.29782558      -0.40184539       0.05105918
S        2.12042164       1.19976021      12.49250291      -0.24971227      -0.25116157       0.59252955
S        6.28733165       1.23180536      12.50321527      -0.59732746      -0.02335052       1.91172166
S       10.29894185       1.28385005      12.67284767       0.59626568      -0.25554562      -0.18285375
S        0.02351724       4.80947248      12.60168410      -0.38915419      -0.06558962      -0.20611208
S        4.11683257       4.88645897      12.47965138      -0.04213478      -0.94375598       0.80925294
S        8.26367732       4.80351657      12.63641140      -0.33520327       0.77248600       0.01408562
S       -2.08396997       8.46140496      12.68855581       0.33631119      -0.76294594      -0.50153728
S        2.10706408       8.35557407      12.56550038       0.09398454       0.03511032       1.18446387
S        6.09671731       8.29237169      12.76037968       1.39946397       0.46699700      -1.40411496
