72
Lattice="12.39778545 0.0 0.0 -6.19889272 10.73679715 0.0 0.0 0.0 13.44794642" Properties=species:S:1:pos:R:3:forces:R:3 ref_energy_eV=-266.54340189 ref_gap_eV=2.1974 energy=-239.84273758 stress="-0.0049490187143292515 0.0010904416013308488 -1.073335472303504e-05 0.0010904416013308488 -0.0040290436373842265 0.0016721955152873493 -1.073335472303504e-05 0.0016721955152873493 -0.014547832241093205" free_energy=-239.84273758 pbc="T T T"
Cd      -0.01780787       2.41061442       0.05437301       0.46152697       0.06408792      -0.28741599
Cd       4.22741895       2.55335960       0.10529984      -0.54089741      -1.00342968      -0.33950721
Cd       8.26479498       2.39003660       0.02481819      -0.13830043       0.15514532      -1.56600858
Cd      -1.92405962       6.06388953      13.41981157      -0.71137554      -0.43960868       0.18380161
Cd       2.12706760       5.94565625      13.42536207      -0.22553453       0.13426511       0.16095337
Cd       6.13230602       6.06807474       0.10039659      -0.18035034      -0.17430593      -0.61495946
Cd      -4.11456469       9.52152238      13.43105472      -1.05649100       0.43522436      -0.63466555
Cd       0.02344335       9.38887473      13.43270358      -0.61768174       0.63126694      -0.00696659
Cd       4.12294703       9.51852155       0.02870626      -0.46859847       1.07764628       0.06456258
Cd      -0.11061930       2.43513662       6.69867117       0.74861204      -0.32603920       0.72307980
Cd       4.10785613       2.30483528       6.70507831       0.64598290       0.54979194       0.61599174
Cd       8.26367701       2.44786037       6.69101646       0.40524310      -0.99860431       0.19575170
Cd      -2.00246185       5.88564281       6.95188860      -0.02292128      -0.19869388      -5.97145289
Cd       2.25470720       5.90767493       6.65171672      -0.74558833       0.52685047      -0.14549240
Cd       6.26839013       6.05041668       6.85768937       0.26392275      -2.44578144      -0.24229906
Cd      -3.97568086       9.58688435       6.73746513       0.03649351      -0.74124107      -0.25716603
Cd       0.01066123       9.61187349       6.82441135       0.34755054       0.54329213      -3.45810003
Cd       4.18263468       9.43052878       6.56606473       0.28836296       0.86651712       0.74813500
Cd       1.99422886       1.15749448       3.39340303       0.45867763      -0.25447519      -0.28322739
Cd       6.21813892       1.04825691       3.19536749       0.05292370       1.83310590       0.94226645
Cd      10.33906102       1.29757157       3.15446623      -0.85318038      -0.53206028       0.61626058
Cd      -0.02489797       4.77995488       3.35123591      -0.17504886       0.29905963       0.02846211
Cd       4.17570246       4.70072848       3.53489438       0.05195365       0.35692881      -1.48248408
Cd       8.18734248       4.94334542       3.34811612       0.54753947      -0.99825748       0.88237927
Cd      -2.06240024       8.39566945       3.36003006      -0.29797063      -0.20889053       0.35089416
Cd       2.04255952       8.32496475       3.30785970      -0.44299859      -0.20712518       0.66227820
Cd       6.11670954       8.46912998       3.47541734       0.58501298      -0.65080972      -0.05759884
Cd       2.07465329       1.19328302      10.08921919      -0.19704579      -0.05451048       0.13170180
Cd       6.19925753       1.17631974      10.12412441       0.06336514       0.24690221      -0.48887620
Cd      10.33023144       1.19867429      10.09732158      -0.02187605       0.03031020      -0.06327522
Cd      -0.09894121       4.90748967      10.00892514       1.05694918      -0.76663816       0.55931466
Cd       3.90557784       4.81040776      10.07894537       0.79212266      -0.58190979       0.26503705
Cd       8.16803758       4.76732304      10.13861996       0.28258336       0.03572250       0.11198948
Cd      -1.97313675       8.47553372       9.93870090      -1.08623521      -0.57861124       0.39065940
Cd       2.06141748       8.35737237      10.08605247       0.00786530       0.40142088      -0.25755800
Cd       6.10690128       8.31143456      10.00193180       0.35452802      -0.29997427       0.47242346
S        0.00407968       2.39329640       2.52909383       0.30586981       0.19324333       0.11474180
S        4.13058828       2.38592763       2.53959600      -0.16404482      -0.23730470       0.45048303
S        8.17048694       2.49161776       2.35505360       0.26897625      -0.23495167       1.97748839
S       -2.16817418       5.99848752       2.55657134       0.99034657       0.06942275      -0.40397016
S        2.06651247       5.96508684       2.53324588       0.14476496      -0.37685275      -0.02412602
S        6.26220909       5.97608691       2.49241724      -1.51028254       0.63916832       0.91232483
S       -4.15061119       9.47352686       2.38548294      -0.24419380       0.30715885       1.44644756
S       -0.02176425       9.56523639       2.56501423       0.12920388      -1.41557509      -0.83291182
S        4.05989177       9.38955565       2.52366408       0.34943222       1.30360904       0.00411912
S        0.00503741       2.42893677       9.38963335      -0.02191317       0.20537453      -0.80566349
S        4.06990149       2.40212409       9.26428034       0.43752491      -0.00505057      -0.09848848
S        8.30912530       2.44304191       9.17094890      -0.27219061      -0.38399334       0.81597939
S       -1.95939982       5.97304388       9.03706074      -1.30589264       0.90772955       6.14689200
S        2.08581899       6.05856387       9.17791830      -0.85307244      -0.04008561      -0.18498154
S        6.09614292       5.86584180       9.22685269       0.01891987       0.21137139       1.02509567
S       -4.21223445       9.55324103       9.20387001       0.28375388      -0.28707724       0.39369777
S       -0.04117912       9.51148530       9.01851159       0.92997825       0.56162756       3.79596111
S        4.13986530       9.53583550       9.27018170      -0.49531616       0.36428236      -0.51493428
S        2.21929360       1.14632531       5.88863452      -1.53927047      -0.08046146      -0.38362838
S        6.23604381       1.34507953       5.95271008      -0.11994128      -1.07237816      -0.94606682
S       10.37412487       1.19477737       5.93053926      -0.43189499      -0.58960020      -0.84451394
S        0.04136782       4.71822238       5.87492689       0.35513877       0.66474576      -0.04931272
S        4.21403685       4.69048504       5.87736554       0.43125432       0.17994261       1.12216786
S        8.36496815       4.68219666       6.00743946      -0.29266982       1.71686325      -1.06613072
S       -1.86508930       8.25872687       5.91546922      -0.84710871       0.11813761      -0.36628935
S        2.11208227       8.47614540       5.89810241      -0.77608039      -1.00153595      -0.44017696
S        6.20218905       8.14733184       6.03042321       0.73719937       2.56488301      -1.37473859
S        1.95426900       1.16866773      12.59632872       0.70672509       0.15277929       0.34832754
S        6.11349858       1.19671257      12.60165760       0.40944363      -0.48624143       0.26581065
S       10.39300881       1.32731368      12.63121471      -0.84444095      -0.85870806       0.00676021
S        0.03212155       4.76313161      12.60830855       0.01905883       0.38185686      -0.26325565
S        4.13250504       4.74694041      12.60991760       0.03973648       0.73627733      -0.38002265
S        8.10145874       4.86886028      12.67431417       1.05306076      -0.24282865      -0.37476437
S       -2.21151827       8.37394709      12.53784696       1.19173549      -0.21900043      -0.56554034
S        2.09048322       8.39538471      12.58414031      -0.24294615      -0.43884731       0.01680959
S        5.98332072       8.34223188      12.64683437       1.49001434      -0.03455197      -0.87247915
