72
Lattice="12.39778545 0.0 0.0 -6.19889272 10.73679715 0.0 0.0 0.0 13.44794642" Properties=species:S:1:pos:R:3:forces:R:3 ref_energy_eV=-267.63816021 ref_gap_eV=2.2061 energy=-240.86407227 stress="0.002229352996186224 -0.0002812785083425929 -0.00038662735553505844 -0.0002812785083425929 -0.01138829656676014 0.0014369889000442468 -0.00038662735553505844 0.0014369889000442468 -0.010722652532167072" free_energy=-240.86407227 pbc="T T T"
Cd       0.00221542       2.27275180       0.00367801       0.64541491       0.53135832      -0.18046751
Cd       4.06502730       2.32378541       0.01404100       0.27498611       0.05744082      -0.04758747
Cd       8.16040767       2.52698370      13.40545467      -0.21892638      -2.39364342       0.19677354
Cd      -2.08570294       5.98743946      13.39690084       0.10882347      -0.52808936       0.25674621
Cd       2.13130888       5.96174791       0.01617506      -0.27516749      -0.46251959      -0.48645652
Cd       6.19101319       5.98122618      13.41987020       0.32944296      -0.57921596       0.17341469
Cd      -4.10777027       9.57350125       0.04548526      -0.07708144      -1.90250767       0.44900670
Cd       0.16318933       9.48803463       0.10149784      -0.90566081      -0.43698129      -0.01639858
Cd       3.89022789       9.53343206       0.01110652       1.03952213       0.20026301      -0.58669236
Cd       0.19388457       2.43429701       6.67077112      -1.37741492       0.93796134      -0.27965781
Cd       4.08527189       2.60012050       6.77371743      -0.11338340      -1.34980835      -0.02358069
Cd       8.32785923       2.48142145       6.67589290       0.03986700      -0.26047308      -0.21118234
Cd      -2.10562680       5.94849731       6.48504126      -0.22895655       0.10986409       1.01078929
Cd       1.83892695       6.05834129       6.71147684       1.00792160      -0.41507142       0.85985822
Cd       6.19727730       5.97289292       6.65872149      -0.00694792       0.04907435       0.44676064
Cd      -4.15409169       9.55042176       6.70529119       0.49716919       0.06487579      -1.43803249
Cd       0.04878039       9.58527362       6.69592254      -0.31248960      -0.60793855       0.14030392
Cd       4.11150313       9.59028587       6.73057508       0.32268174      -0.31196978       0.21906001
Cd       1.98094661       1.19640485       3.30161729      -0.02155409      -0.03500901       0.16244015
Cd       6.24319640       1.17769448       3.54648719      -0.47089470       0.13816910      -1.40493246
Cd      10.36361285       1.18133715       3.38313350      -0.52299203       0.03670169      -1.01757475
Cd      -0.00551236       4.76933350       3.36488464       0.21299035       0.03698574      -1.25883718
Cd       4.10058186       4.80627195       3.36826155       0.07789755      -0.06530703      -0.04265020
Cd       8.34974299       4.66607246       3.28378976      -0.46100447       1.02024340      -0.30588399
Cd      -1.98760533       8.25524041       3.25992637      -0.79329351       0.43513398       0.53992921
Cd       2.13158839       8.34681778       3.39385259      -0.29747480       0.11737643      -0.64801965
Cd       6.12353583       8.39598909       3.30671716       1.01629030      -0.46111547       0.43056095
Cd       2.08950714       1.36028799      10.09749963       0.15379921      -0.57389468      -0.32102179
Cd       6.16032253       1.13731360      10.02673385       0.22473857       0.01784969       0.68368007
Cd      10.12782644       1.20167715      10.19793320       0.95296332      -0.05284925      -0.40067571
Cd      -0.10116642       4.56982932      10.17908389       0.79113080       0.60223800       0.01951632
Cd       4.17717532       4.80399693      10.14061993      -0.30906517       0.55789899      -0.43699339
Cd       8.21045499       4.60092415       9.94681674       0.09959314       1.91497569       0.68846086
Cd      -2.07276355       8.33391612      10.13208304      -0.35690617      -0.39003973      -0.36364729
Cd       2.00085548       8.41854431      10.09003548       0.72223442      -0.48651309      -0.32777523
Cd       6.25994779       8.37039299      10.13805783       0.22584524      -0.07465447      -0.25275639
S       -0.05144232       2.39488459       2.48747189      -0.08378464       0.19736281       0.02615801
S        3.94432451       2.43621503       2.52392188       0.99813905      -0.07268837       0.07437301
S        8.10572060       2.48575966       2.40901429       0.39688170      -1.56092528       0.53216475
S       -2.06995440       5.96520140       2.53589781       0.05063312      -0.56255070      -0.58135615
S        2.06214895       6.00303777       2.43785973      -0.16028810      -0.03025527       0.77673738
S        6.15774683       5.99142206       2.51708696       0.32757298      -0.17772537       0.00662412
S       -4.10984641       9.59069903       2.52990891      -0.09271461      -0.60262690       0.26910145
S       -0.09007790       9.53219712       2.53187136       1.13662520       0.48037726       0.42438312
S        4.19773401       9.51483937       2.43226350      -0.97010561       0.65044471       0.38479364
S        0.08622170       2.44761622       9.06279769      -0.44464896      -0.89066145       0.96537837
S        4.27913253       2.50698083       9.28297608      -0.73448464      -0.57248666      -0.20342426
S        8.24822311       2.38809818       9.25330735      -0.39047373      -1.22379316      -0.96259714
S       -1.98316154       5.77209592       9.30508692      -1.06676360       1.07687022      -0.88485985
S        2.05511376       5.95125473       9.28271545      -0.20849759       0.14905738      -0.14833730
S        6.16034702       5.99432078       9.22418327       0.56164138      -0.08027388      -0.09972418
S       -4.16168607       9.53790201       9.02128886       0.52537944       0.29282385       2.38231974
S       -0.00011182       9.54459737       9.25808554      -0.33309412      -0.15635018      -0.42257476
S        4.23657286       9.62843157       9.34440051      -0.70696994      -0.30810890      -0.54177468
S        1.96032383       1.22805424       5.81694002       1.87975433      -0.66180953      -0.27584101
S        6.18549958       1.15050053       5.90995799      -0.00221236       0.91863439       1.00867064
S       10.43554716       1.18377354       5.76682248      -0.41014710       0.39530660       1.17234866
S       -0.03008781       4.92591756       5.71871003      -0.01433298      -1.15743778       0.98158781
S        4.16509659       4.79335644       5.91848452      -0.76626355       0.95179605      -0.52083861
S        8.21218268       4.84617246       5.70825694       0.11129547      -0.57812268       0.85863995
S       -2.01115983       8.31034327       5.82380385      -0.15784515       0.68734232       0.08206555
S        2.05572194       8.30972934       5.83395934       0.38733577       0.79348302       0.40551178
S        6.27379153       8.31133352       5.90415493      -0.83464692       0.43659405      -0.56546442
S        2.10847556       0.94794098      12.60539210      -0.28792792       2.37218562      -0.88893551
S        6.15092526       0.97073369      12.67514996       0.14462044       1.47095794      -0.67499854
S       10.39623335       1.21106444      12.61052303      -0.90316623      -0.42326926       0.39981969
S       -0.00322386       4.77216329      12.62100395       0.36203708      -0.45101362       0.54594475
S        4.13585220       4.77118710      12.57159956       0.10918261      -0.50225164       0.61670713
S        8.36728815       4.62187755      12.60261859      -0.52379228       2.33250367      -1.09714816
S       -2.07031257       8.27884032      12.64887792       0.25345123       0.72132041      -0.12256697
S        2.01069659       8.27459972      12.59344683       0.26515561      -0.16443556      -0.36746748
S        6.26299281       8.26426620      12.60677683      -0.41164393       0.80891663       0.21810251
