72
Lattice="12.39778545 0.0 0.0 -6.19889272 10.73679715 0.0 0.0 0.0 13.44794642" Properties=species:S:1:pos:R:3:forces:R:3 ref_energy_eV=-269.47486178 ref_gap_eV=2.2309 energy=-242.6358642 stress="-0.001795123267098918 -0.0015249213340661923 -2.7008133459339517e-06 -0.0015249213340661923 -0.003570826808809218 -0.002976958287918615 -2.7008133459339517e-06 -0.002976958287918615 0.0010830138372220092" free_energy=-242.6358642 pbc="T T T"
Cd      -0.04317832       2.25048862      13.14253576       0.79723698       0.24389311       0.50301974
Cd       3.98156523       2.44214389      13.38439640       0.10251904      -0.37778372      -0.28610946
Cd       8.22799773       2.51249020      13.27664325       1.02454871       0.29000327       0.30181138
Cd      -1.86415959       5.94907023      13.37126892      -0.14046481      -0.36633546       0.79235150
Cd       2.22021030       5.81580650       0.14089763      -0.33889186      -0.12675542      -0.18520791
Cd       6.37331302       6.01600707       0.08432481      -1.06090268       0.40506924      -0.03169654
Cd      -3.93082375       9.21816523       0.04095976      -0.75160271       0.54771313      -0.11161916
Cd       0.08404031       9.54525263       0.07411486       0.41910565       0.15976855       0.14815247
Cd       4.15232166       9.59960831       0.03722903      -0.05753431      -0.08862191      -0.14899157
Cd      -0.20376213       2.44516136       6.69378176       0.79369412       0.71527420       0.37349883
Cd       4.15411178       2.58239802       6.83643798      -0.62980455      -0.20615461       0.32520312
Cd       8.08082219       2.42120778       6.69330288       0.52057807       0.43801492       0.42569311
Cd      -2.11883249       6.09466152       6.86210204       0.36154113       0.06170754      -0.70358050
Cd       2.06668313       6.03225378       6.60980122       0.01895454       0.29511183      -0.33763625
Cd       6.28810223       6.00852642       6.76092319      -0.19886883       0.27742089       0.54485429
Cd      -4.03514882       9.94903351       6.71505574      -0.11558442      -0.94255320       0.31798976
Cd      -0.14686925       9.56324439       6.65420755       0.63308714       0.44748253       0.49971291
Cd       4.16604893       9.64102991       6.90133939       0.03093227      -0.10562044      -0.65907056
Cd       2.21166171       1.16609680       3.33828850      -0.75711368       0.23897952      -0.25952754
Cd       6.04664594       1.12040883       3.35608296       0.10659483       0.42263165      -0.10420453
Cd      10.24234342       1.39060957       3.21890920      -0.02774851      -0.30073399       0.22398040
Cd       0.17388744       4.60825943       3.33324915      -0.49540979       0.23319031       0.07967501
Cd       4.10737058       4.83416046       3.49662650       0.03647905      -0.11101695      -0.43455985
Cd       8.15768165       4.69678733       3.37976129       0.29705037       0.37433377      -0.06804370
Cd      -2.15172623       8.24389183       3.38018477       0.22353495      -0.26586689      -0.00318932
Cd       2.15347724       8.46707066       3.37569746       0.16269133       0.26658735       0.11516693
Cd       6.31857339       8.32292035       3.52422989      -0.25381459       0.62274641       0.17777080
Cd       1.94217440       0.97027373      10.08639822       0.04589635       1.34216880       0.04961488
Cd       6.30534284       1.01462991      10.23930513      -0.28152755       0.24121955      -0.43736528
Cd      10.28603520       1.09549710       9.96462263       0.25517057       1.07239141       0.28650749
Cd      -0.01709685       4.81160728       9.96650278       0.60555057      -0.42570833       0.38121401
Cd       4.01323332       4.61802207       9.99048020       0.19945457       0.12856883       0.20795234
Cd       8.30767545       4.81903338      10.03211451      -0.46755093      -0.03477409       0.41814078
Cd      -2.03818700       8.30724055      10.14266106      -0.40482937       0.31576395      -0.33570271
Cd       1.98352709       8.12123488      10.14514893       0.26878493       0.66303478       0.70200166
Cd       6.07007131       8.32219197      10.03152683       0.38270543       0.06031006       0.32074168
S       -0.02383276       2.31623959       2.31997301       0.53263948       0.09808162       0.25969239
S        4.07171262       2.49868665       2.46976767       0.38295261       0.08560258       0.02371178
S        8.07670111       2.39204545       2.38414446       0.12939604      -0.04369176       0.47347077
S       -2.01522308       5.86115078       2.57168293      -0.16554880      -0.05668639      -0.24336165
S        2.11027232       6.07554637       2.61409547      -0.12261060      -0.36729874       0.13983343
S        6.11267320       6.07399318       2.58965988       0.34497846      -0.58409932      -0.06464344
S       -4.09115073       9.56902820       2.52568612      -0.08434222      -0.34703921       0.06334694
S       -0.04949995       9.49590825       2.65878058       0.04831828      -0.07310000      -0.45378522
S        4.26189825       9.63756955       2.54243231      -0.20152511      -0.05004868       0.36435338
S       -0.05455112       2.36921237       9.28292968       0.26257146       0.00079076      -0.35325855
S        4.09448469       2.21311931       9.34508434       0.16814145      -0.04539867      -0.14798460
S        8.27200317       2.38303921       9.38059902      -0.51174458       0.23923642      -0.77778500
S       -2.02237517       5.97609088       9.25674787      -0.46298453       0.12133189       0.56025241
S        2.07732557       5.97148447       9.08972034      -0.00792196      -0.81227565       0.30792616
S        6.11082277       5.94954093       9.30788853       0.23487723      -0.36611030      -0.07683682
S       -4.16266345       9.50644223       9.29492592       0.14213565      -1.30502534      -0.78798648
S        0.02106415       9.40580247       9.33662599      -0.02256395       0.50385611      -0.62799469
S        4.01747213       9.56140196       9.39277318      -0.15748445      -1.22890780      -0.44516849
S        2.00930221       1.44755786       5.80165280       0.08652174       0.40807946       0.34652962
S        6.02648906       1.32704547       5.90322446       0.35984127      -0.69005050      -0.23337613
S       10.24718339       1.34114708       5.88120507      -0.74171856      -0.73986899      -0.41223665
S       -0.06958412       4.94965865       5.91257415       0.18306640      -0.62400374      -0.26628045
S        4.25301511       4.88576183       5.94798232      -0.60369589       0.09752089       0.12110939
S        8.30750392       4.97275136       5.95761105      -0.01125077      -1.27512754      -0.55090961
S       -2.11005870       8.40117915       5.91798197      -0.70515227       0.20513357      -0.12036820
S        2.01540490       8.52607397       5.93369603       0.52033341      -0.18398818      -0.02092181
S        6.35599511       8.37843904       6.07675475      -0.45970277       0.95060247      -0.25155347
S        2.06836148       0.91255367      12.54006601       0.24806005       0.53725170       0.77818930
S        6.31812719       1.26118306      12.68829815      -1.43590028      -0.86865149       0.12407255
S       10.31440542       1.21401910      12.46552821      -0.85826036      -0.40825137       0.39101456
S        0.09256274       4.70290891      12.54832695       0.44665129       0.00576442      -0.15539800
S        4.20722978       4.78876227      12.54572033       0.34499325      -0.09571127       0.07049868
S        8.32590348       4.92630999      12.70536696       0.64544264      -0.38065505      -0.88782086
S       -1.87515705       8.28194949      12.59675112       0.10314454       0.16325609       0.19637777
S        2.12925116       8.15727594      12.75352567      -0.12682727       0.81790428      -0.43769311
S        6.20936204       8.39339755      12.60833249       0.19070715      -0.19988282       0.00643593
