72
Lattice="12.39778545 0.0 0.0 -6.19889272 10.73679715 0.0 0.0 0.0 13.44794642" Properties=species:S:1:pos:R:3:forces:R:3 ref_energy_eV=-269.43106019 ref_gap_eV=2.2204 energy=-242.61803046 stress="-0.0020613211409556977 0.00031843017391257144 -0.0002582121125905771 0.00031843017391257144 -0.0016521814421922192 -0.0019462234934142413 -0.0002582121125905771 -0.0019462234934142413 0.001993892257899061" free_energy=-242.61803046 pbc="T T T"
Cd      -0.08037422       2.47071568      13.17617727      -0.41507997       0.09769355       0.52499623
Cd       4.17520630       2.19564796      13.33023762      -0.01280741       0.42633391       0.15260569
Cd       8.22867347       2.25614885      13.42450235       0.74866912       0.19812879       0.66823108
Cd      -2.17212505       5.98110518       0.10470692      -0.16059557       0.10903631      -1.07780781
Cd       2.13686271       5.92395374      13.43270936       0.01344032      -0.02342344       0.03545854
Cd       6.16519945       5.83099573      13.33248719       0.49400134      -0.05998144       0.63795085
Cd      -4.09415465       9.57911961       0.06589332       0.11183034      -0.10336927      -0.01033370
Cd      -0.12337705       9.43445565       0.09573136       0.19364486       0.24643487       0.01051677
Cd       4.00502227       9.42720230       0.19665618       0.16286188      -0.29009553      -0.32259526
Cd       0.02858142       2.33298953       6.75954262       0.19494131       0.42821219      -0.03327757
Cd       4.07173184       2.39996008       6.50136034      -0.19286847       0.19806832       0.20788475
Cd       8.21352722       2.50339774       6.79817669      -0.34953371       0.38285231      -0.38651554
Cd      -2.17495218       5.73937081       6.75126098       0.25070955       0.51054906       0.27982060
Cd       2.05326953       6.17174914       6.72630656       0.06897594       0.10756275      -0.13364205
Cd       6.12201908       6.07237826       6.85135391       0.04937729       0.23408203       0.43558464
Cd      -4.06647827       9.36357014       6.77551583      -0.01185712       0.08695964      -0.09116449
Cd      -0.04352062       9.42638061       6.63219972       0.37488632       0.03416492       0.15522462
Cd       4.42023086       9.79023242       6.66310310      -1.03065059       0.57785187       0.67754978
Cd       2.11045376       1.17593987       3.32889565      -0.42328609      -0.06073017       0.04147038
Cd       6.11097402       1.26728446       3.42900902       0.27939936       0.35905165       0.04101726
Cd      10.53362932       1.50708417       3.28258522      -0.16760363      -0.13174021       0.07355815
Cd       0.10308294       4.96008816       3.41294289       0.27537641      -0.25089552       0.10812463
Cd       4.19618521       4.79327667       3.41575714       0.17031408      -0.02200802      -0.04611199
Cd       8.28081620       4.80704521       3.30477501      -0.81977176      -0.08663705       0.24279377
Cd      -2.14354053       8.13844779       3.23818131       0.07012687       0.93998684       0.40410726
Cd       2.05615592       8.45876521       3.31962571      -0.02964472      -0.06358104       0.36440530
Cd       6.08693930       8.36064935       3.34178887       0.28420028       0.20249501       0.49559520
Cd       2.08293960       1.16136617      10.04928404       0.32983932      -0.03916475      -0.38644261
Cd       6.23925973       1.21654644       9.99982814      -0.84296880      -0.42056763       0.43097807
Cd      10.30912012       1.08023947      10.23769824      -0.18316911      -0.13656047      -0.76419847
Cd       0.11356161       4.77053871      10.00140491       0.24143734       0.15530431       0.43009838
Cd       4.27277978       4.78274870       9.94359569      -0.32805847      -0.15893033       0.30633908
Cd       8.27675345       4.72729508      10.14894166      -0.24523853       0.01935892       0.11025226
Cd      -2.10788530       8.15209544       9.98021525       0.53293405       0.91142657       0.09895073
Cd       1.96978594       8.29785272      10.12829543       0.31208869       1.00598320       0.15230162
Cd       6.19485750       8.51857529      10.49903891      -0.06529624      -0.14666988      -0.72272463
S        0.23840365       2.63597829       2.37496382      -0.58265435      -0.48112775       0.13475653
S        4.05370447       2.41918088       2.50106615       0.61741130       0.20014132      -0.25556298
S        8.24773054       2.45177619       2.48061707       0.06607831      -0.37123044       0.55031800
S       -2.06929930       5.83929141       2.49086629       0.45057850       0.03463100       0.51671256
S        2.21913826       6.02374476       2.52075072      -0.47369830       0.42517074       0.07086077
S        6.17980355       6.08690214       2.54762523       0.25265721      -0.98526309      -0.47595901
S       -4.19585511       9.51124190       2.60804927       0.39102143       0.01488464      -0.30477612
S       -0.09588906       9.65750596       2.61943740      -0.03273062      -0.81614964      -0.15712115
S        4.16252721       9.66989235       2.62790382      -0.37455218       0.70152542       0.25688782
S       -0.04282257       2.35180179       9.31056279       0.08159397      -0.01249606       0.01051389
S        4.16562095       2.42483477       9.09112471      -0.32087411      -0.27554162       0.33110814
S        8.19625512       2.35716085       9.25386652       1.11360613       0.39306513       0.30488552
S       -2.03880112       5.87038453       9.31585604      -0.02111767      -0.78958327      -0.52000396
S        2.19609499       6.09605730       9.23956705      -0.34371365      -1.21921896      -0.04249207
S        6.25257712       6.11878946       9.41369227       0.47717465       0.02927032      -0.21744592
S       -4.09296781       9.41741872       9.30318982      -0.47970847       0.58430878       0.00278644
S       -0.01968693       9.54374680       9.26491589      -0.28460394      -0.24051270      -0.33906891
S        4.19934144       9.45786745       9.23692358      -0.18748984       0.33976996       0.34024716
S        1.98939620       1.01867543       5.84003176       0.24380428       0.44976087       0.31228659
S        6.20488005       1.19847855       5.97099216      -0.07310713      -0.12946340      -0.31214841
S       10.25978010       1.43306061       5.94400698       0.40559798      -0.24309863      -0.72749021
S        0.00493891       4.89298436       5.96969336       0.37792983      -0.59160726      -0.20661616
S        4.13909006       4.95613284       5.92581796      -0.41213332      -0.87419388      -0.02811805
S        8.10883208       4.97188178       5.85957189      -0.00658865      -0.96782120      -0.09791670
S       -2.08521533       8.14739058       5.81346830       0.24415834       0.28318870       0.17172473
S        2.34504868       8.54048179       5.91716958      -1.10405301      -0.10919979      -0.28651026
S        6.15534042       8.40742753       5.93596564       1.05971340      -0.53868255      -0.65803346
S        1.94244293       1.20321219      12.55794868       0.65212228      -0.29967827       0.09456927
S        6.35194209       1.09890056      12.65481545      -1.68621256      -0.69334968      -0.82116648
S       10.22211321       0.98353808      12.68090877       0.75710559       0.61104691       0.14461194
S       -0.05934181       4.93259939      12.70010410       0.21472425      -0.43864119      -0.82416514
S        4.17567989       4.71987949      12.55959821      -0.63073247      -0.65167550      -0.27025844
S        8.26531141       4.55909048      12.70573852       0.13265565       1.12763440      -0.41935553
S       -2.07409018       8.32350519      12.48153934      -0.48703382      -0.06337410       0.77948463
S        1.96638858       8.33294766      12.66700655       0.25781356      -0.11143237       0.00858090
S        6.21282586       8.26463479      12.93550207      -0.17536706       0.47176089      -0.17712745
