  72  72   0   0
  0.2550973E+02  0.1250651E-08  0.1250651E-08  0.1355924E-08  0.5000000E-15
  1.000000000000000E-004
  CAR 
 unknown system                          
      9.38026562    -13.90431047  301      2.06197982      1.00000000
    -13.904  0.0000E+00  0.0000E+00
    -13.827  0.0000E+00  0.0000E+00
    -13.749  0.0000E+00  0.0000E+00
    -13.671  0.0000E+00  0.0000E+00
    -13.594  0.0000E+00  0.0000E+00
    -13.516  0.0000E+00  0.0000E+00
    -13.439  0.0000E+00  0.0000E+00
    -13.361  0.0000E+00  0.0000E+00
    -13.283  0.0000E+00  0.0000E+00
    -13.206  0.0000E+00  0.0000E+00
    -13.128  0.1860E-13  0.1443E-14
    -13.051  0.9200E-07  0.7141E-08
    -12.973  0.4223E-02  0.3278E-03
    -12.895  0.2088E+01  0.1624E+00
    -12.818  0.1820E+02  0.1575E+01
    -12.740  0.5436E+01  0.1997E+01
    -12.662  0.3552E-01  0.2000E+01
    -12.585  0.1527E-02  0.2000E+01
    -12.507  0.1397E+01  0.2109E+01
    -12.430  0.2813E+02  0.4292E+01
    -12.352  0.4118E+02  0.7488E+01
    -12.274  0.1380E+02  0.8558E+01
    -12.197  0.1721E+02  0.9894E+01
    -12.119  0.4149E+01  0.1022E+02
    -12.042  0.2504E+02  0.1216E+02
    -11.964  0.4178E+02  0.1540E+02
    -11.886  0.1717E+02  0.1674E+02
    -11.809  0.3696E+02  0.1960E+02
    -11.731  0.1951E+02  0.2112E+02
    -11.653  0.3409E+02  0.2376E+02
    -11.576  0.3618E+02  0.2657E+02
    -11.498  0.1746E+02  0.2793E+02
    -11.421  0.1941E+01  0.2808E+02
    -11.343  0.1620E+02  0.2933E+02
    -11.265  0.8983E+01  0.3003E+02
    -11.188  0.1400E+02  0.3112E+02
    -11.110  0.1430E+02  0.3223E+02
    -11.033  0.2239E+02  0.3397E+02
    -10.955  0.2347E+02  0.3579E+02
    -10.877  0.1934E+02  0.3729E+02
    -10.800  0.1055E+02  0.3811E+02
    -10.722  0.1759E+02  0.3947E+02
    -10.644  0.1041E+02  0.4028E+02
    -10.567  0.1880E+02  0.4174E+02
    -10.489  0.3348E+01  0.4200E+02
    -10.412  0.4431E+01  0.4234E+02
    -10.334  0.1861E+02  0.4379E+02
    -10.256  0.4182E+01  0.4411E+02
    -10.179  0.2330E+02  0.4592E+02
    -10.101  0.4054E+02  0.4907E+02
    -10.024  0.2994E+02  0.5139E+02
     -9.946  0.2537E+02  0.5336E+02
     -9.868  0.1736E+02  0.5471E+02
     -9.791  0.1587E+02  0.5594E+02
     -9.713  0.1182E+02  0.5686E+02
     -9.635  0.3656E+02  0.5970E+02
     -9.558  0.2323E+02  0.6150E+02
     -9.480  0.6595E+01  0.6201E+02
     -9.403  0.1063E+02  0.6284E+02
     -9.325  0.1439E+02  0.6395E+02
     -9.247  0.4325E+01  0.6429E+02
     -9.170  0.1990E+02  0.6583E+02
     -9.092  0.2040E+02  0.6742E+02
     -9.015  0.2131E+02  0.6907E+02
     -8.937  0.1168E+02  0.6998E+02
     -8.859  0.2803E+00  0.7000E+02
     -8.782  0.9185E-04  0.7000E+02
     -8.704  0.2974E-09  0.7000E+02
     -8.626  0.1580E-07  0.7000E+02
     -8.549  0.1338E-02  0.7000E+02
     -8.471  0.1181E+01  0.7009E+02
     -8.394  0.1672E+02  0.7139E+02
     -8.316  0.7780E+01  0.7199E+02
     -8.238  0.1615E+00  0.7201E+02
     -8.161  0.7399E+01  0.7258E+02
     -8.083  0.2854E+02  0.7480E+02
     -8.006  0.5472E+02  0.7904E+02
     -7.928  0.6798E+02  0.8432E+02
     -7.850  0.8657E+02  0.9104E+02
     -7.773  0.9533E+02  0.9844E+02
     -7.695  0.1124E+03  0.1072E+03
     -7.617  0.1148E+03  0.1161E+03
     -7.540  0.1436E+03  0.1272E+03
     -7.462  0.1249E+03  0.1369E+03
     -7.385  0.1518E+03  0.1487E+03
     -7.307  0.1510E+03  0.1604E+03
     -7.229  0.1272E+03  0.1703E+03
     -7.152  0.1390E+03  0.1811E+03
     -7.074  0.1422E+03  0.1921E+03
     -6.997  0.1466E+03  0.2035E+03
     -6.919  0.1784E+03  0.2173E+03
     -6.841  0.2030E+03  0.2331E+03
     -6.764  0.1614E+03  0.2456E+03
     -6.686  0.1155E+03  0.2546E+03
     -6.608  0.1201E+03  0.2639E+03
     -6.531  0.1231E+03  0.2735E+03
     -6.453  0.1275E+03  0.2834E+03
     -6.376  0.1567E+03  0.2955E+03
     -6.298  0.1878E+03  0.3101E+03
     -6.220  0.1861E+03  0.3245E+03
     -6.143  0.1704E+03  0.3378E+03
     -6.065  0.1654E+03  0.3506E+03
     -5.988  0.1695E+03  0.3637E+03
     -5.910  0.1612E+03  0.3763E+03
     -5.832  0.1573E+03  0.3885E+03
     -5.755  0.1521E+03  0.4003E+03
     -5.677  0.1410E+03  0.4112E+03
     -5.599  0.1019E+03  0.4191E+03
     -5.522  0.8566E+02  0.4258E+03
     -5.444  0.2728E+02  0.4279E+03
     -5.367  0.2396E+02  0.4298E+03
     -5.289  0.2791E+02  0.4319E+03
     -5.211  0.1078E+01  0.4320E+03
     -5.134  0.6105E-03  0.4320E+03
     -5.056  0.3546E-08  0.4320E+03
     -4.979  0.8967E-05  0.4320E+03
     -4.901  0.7284E-01  0.4320E+03
     -4.823  0.7237E+01  0.4326E+03
     -4.746  0.1711E+02  0.4339E+03
     -4.668  0.1345E+01  0.4340E+03
     -4.590  0.1729E-02  0.4340E+03
     -4.513  0.6498E-03  0.4340E+03
     -4.435  0.8126E+00  0.4341E+03
     -4.358  0.1547E+02  0.4353E+03
     -4.280  0.9339E+01  0.4360E+03
     -4.202  0.1507E+00  0.4360E+03
     -4.125  0.2199E+01  0.4362E+03
     -4.047  0.1830E+02  0.4376E+03
     -3.970  0.5232E+01  0.4380E+03
     -3.892  0.4798E+00  0.4380E+03
     -3.814  0.1375E+02  0.4391E+03
     -3.737  0.2507E+02  0.4410E+03
     -3.659  0.1477E+02  0.4422E+03
     -3.581  0.1922E+02  0.4437E+03
     -3.504  0.2445E+02  0.4456E+03
     -3.426  0.5229E+02  0.4496E+03
     -3.349  0.2881E+02  0.4519E+03
     -3.271  0.3116E+02  0.4543E+03
     -3.193  0.2380E+02  0.4561E+03
     -3.116  0.4296E+02  0.4595E+03
     -3.038  0.5184E+02  0.4635E+03
     -2.961  0.2609E+02  0.4655E+03
     -2.883  0.4851E+02  0.4693E+03
     -2.805  0.2990E+02  0.4716E+03
     -2.728  0.5876E+02  0.4762E+03
     -2.650  0.7508E+02  0.4820E+03
     -2.572  0.5968E+02  0.4866E+03
     -2.495  0.3157E+02  0.4891E+03
     -2.417  0.6191E+02  0.4939E+03
     -2.340  0.8321E+02  0.5003E+03
     -2.262  0.6882E+02  0.5057E+03
     -2.184  0.3692E+02  0.5086E+03
     -2.107  0.4900E+02  0.5124E+03
     -2.029  0.3817E+02  0.5153E+03
     -1.952  0.3675E+02  0.5182E+03
     -1.874  0.5636E+02  0.5225E+03
     -1.796  0.7109E+02  0.5281E+03
     -1.719  0.4645E+02  0.5317E+03
     -1.641  0.1499E+02  0.5328E+03
     -1.563  0.4252E+02  0.5361E+03
     -1.486  0.3696E+02  0.5390E+03
     -1.408  0.3290E+02  0.5416E+03
     -1.331  0.4142E+02  0.5448E+03
     -1.253  0.3651E+02  0.5476E+03
     -1.175  0.1294E+02  0.5486E+03
     -1.098  0.1675E+02  0.5499E+03
     -1.020  0.3858E+01  0.5502E+03
     -0.943  0.1861E+02  0.5517E+03
     -0.865  0.8075E+01  0.5523E+03
     -0.787  0.2600E+02  0.5543E+03
     -0.710  0.2201E+02  0.5560E+03
     -0.632  0.2938E+02  0.5583E+03
     -0.554  0.4787E+02  0.5620E+03
     -0.477  0.4079E+02  0.5652E+03
     -0.399  0.1200E+02  0.5661E+03
     -0.322  0.1738E+02  0.5674E+03
     -0.244  0.1052E+02  0.5683E+03
     -0.166  0.2091E+02  0.5699E+03
     -0.089  0.2428E+02  0.5718E+03
     -0.011  0.3469E+02  0.5745E+03
      0.066  0.1938E+02  0.5760E+03
      0.144  0.1146E+02  0.5769E+03
      0.222  0.3292E+02  0.5794E+03
      0.299  0.3936E+02  0.5825E+03
      0.377  0.2295E+02  0.5842E+03
      0.455  0.3350E+02  0.5868E+03
      0.532  0.2741E+02  0.5890E+03
      0.610  0.3418E+02  0.5916E+03
      0.687  0.4206E+02  0.5949E+03
      0.765  0.4037E+02  0.5980E+03
      0.843  0.4397E+02  0.6014E+03
      0.920  0.2629E+02  0.6035E+03
      0.998  0.1248E+02  0.6044E+03
      1.075  0.2204E+02  0.6062E+03
      1.153  0.2975E+02  0.6085E+03
      1.231  0.4416E+02  0.6119E+03
      1.308  0.2877E+02  0.6141E+03
      1.386  0.3491E+02  0.6168E+03
      1.464  0.4061E+02  0.6200E+03
      1.541  0.5526E+02  0.6243E+03
      1.619  0.5990E+02  0.6289E+03
      1.696  0.3729E+02  0.6318E+03
      1.774  0.2150E+02  0.6335E+03
      1.852  0.3401E+02  0.6361E+03
      1.929  0.5189E+02  0.6402E+03
      2.007  0.6207E+02  0.6450E+03
      2.084  0.5151E+02  0.6490E+03
      2.162  0.3878E+02  0.6520E+03
      2.240  0.3879E+02  0.6550E+03
      2.317  0.5357E+02  0.6592E+03
      2.395  0.4016E+02  0.6623E+03
      2.473  0.5351E+02  0.6664E+03
      2.550  0.4817E+02  0.6702E+03
      2.628  0.3293E+02  0.6727E+03
      2.705  0.4165E+02  0.6760E+03
      2.783  0.4254E+02  0.6793E+03
      2.861  0.5865E+02  0.6838E+03
      2.938  0.4356E+02  0.6872E+03
      3.016  0.5072E+02  0.6911E+03
      3.093  0.4071E+02  0.6943E+03
      3.171  0.4958E+02  0.6981E+03
      3.249  0.3712E+02  0.7010E+03
      3.326  0.3655E+02  0.7038E+03
      3.404  0.2703E+02  0.7059E+03
      3.482  0.3184E+02  0.7084E+03
      3.559  0.3690E+02  0.7113E+03
      3.637  0.3013E+02  0.7136E+03
      3.714  0.2424E+02  0.7155E+03
      3.792  0.2492E+02  0.7174E+03
      3.870  0.1894E+02  0.7189E+03
      3.947  0.3132E+02  0.7213E+03
      4.025  0.3263E+02  0.7239E+03
      4.102  0.3491E+02  0.7266E+03
      4.180  0.2184E+02  0.7283E+03
      4.258  0.3331E+02  0.7309E+03
      4.335  0.1651E+02  0.7321E+03
      4.413  0.1843E+02  0.7336E+03
      4.491  0.8791E+01  0.7343E+03
      4.568  0.3139E+02  0.7367E+03
      4.646  0.4769E+02  0.7404E+03
      4.723  0.4542E+02  0.7439E+03
      4.801  0.2621E+02  0.7460E+03
      4.879  0.1660E+02  0.7472E+03
      4.956  0.1518E+02  0.7484E+03
      5.034  0.3474E+02  0.7511E+03
      5.111  0.1309E+02  0.7521E+03
      5.189  0.1804E+02  0.7535E+03
      5.267  0.5976E+01  0.7540E+03
      5.344  0.4479E-01  0.7540E+03
      5.422  0.2170E-03  0.7540E+03
      5.500  0.4477E+00  0.7540E+03
      5.577  0.1428E+02  0.7551E+03
      5.655  0.2798E+02  0.7573E+03
      5.732  0.1774E+02  0.7587E+03
      5.810  0.3345E+02  0.7613E+03
      5.888  0.1266E+02  0.7623E+03
      5.965  0.3248E+02  0.7648E+03
      6.043  0.1781E+02  0.7662E+03
      6.120  0.1881E+02  0.7676E+03
      6.198  0.8502E+01  0.7683E+03
      6.276  0.1972E+02  0.7698E+03
      6.353  0.2301E+02  0.7716E+03
      6.431  0.2746E+02  0.7737E+03
      6.509  0.4076E+01  0.7741E+03
      6.586  0.1627E+02  0.7753E+03
      6.664  0.2660E+02  0.7774E+03
      6.741  0.2737E+02  0.7795E+03
      6.819  0.4471E+02  0.7830E+03
      6.897  0.2603E+02  0.7850E+03
      6.974  0.1334E+02  0.7860E+03
      7.052  0.2104E+02  0.7877E+03
      7.129  0.4569E+02  0.7912E+03
      7.207  0.2496E+02  0.7932E+03
      7.285  0.1510E+02  0.7943E+03
      7.362  0.2190E+02  0.7960E+03
      7.440  0.2881E+02  0.7983E+03
      7.517  0.3675E+02  0.8011E+03
      7.595  0.4021E+02  0.8042E+03
      7.673  0.5310E+02  0.8084E+03
      7.750  0.2204E+02  0.8101E+03
      7.828  0.2740E+02  0.8122E+03
      7.906  0.2635E+02  0.8142E+03
      7.983  0.4836E+02  0.8180E+03
      8.061  0.3978E+02  0.8211E+03
      8.138  0.2313E+02  0.8229E+03
      8.216  0.4128E+02  0.8261E+03
      8.294  0.4482E+02  0.8296E+03
      8.371  0.2920E+02  0.8318E+03
      8.449  0.2281E+01  0.8320E+03
      8.526  0.4271E-02  0.8320E+03
      8.604  0.9211E-07  0.8320E+03
      8.682  0.1717E-13  0.8320E+03
      8.759  0.0000E+00  0.8320E+03
      8.837  0.0000E+00  0.8320E+03
      8.915  0.0000E+00  0.8320E+03
      8.992  0.0000E+00  0.8320E+03
      9.070  0.0000E+00  0.8320E+03
      9.147  0.0000E+00  0.8320E+03
      9.225  0.0000E+00  0.8320E+03
      9.303  0.0000E+00  0.8320E+03
      9.380  0.0000E+00  0.8320E+03
