  72  72   0   0
  0.2550973E+02  0.1250651E-08  0.1250651E-08  0.1355924E-08  0.5000000E-15
  1.000000000000000E-004
  CAR 
 unknown system                          
      9.28983773    -12.17052015  301      1.28244170      1.00000000
    -12.171  0.0000E+00  0.0000E+00
    -12.099  0.0000E+00  0.0000E+00
    -12.027  0.0000E+00  0.0000E+00
    -11.956  0.0000E+00  0.0000E+00
    -11.884  0.0000E+00  0.0000E+00
    -11.813  0.0000E+00  0.0000E+00
    -11.741  0.0000E+00  0.0000E+00
    -11.670  0.0000E+00  0.0000E+00
    -11.598  0.0000E+00  0.0000E+00
    -11.527  0.0000E+00  0.0000E+00
    -11.455  0.2620E-11  0.1874E-12
    -11.384  0.1342E-05  0.9599E-07
    -11.312  0.1300E-01  0.9301E-03
    -11.241  0.2754E+01  0.1979E+00
    -11.169  0.1874E+02  0.1538E+01
    -11.098  0.6403E+01  0.1996E+01
    -11.026  0.5739E+01  0.2407E+01
    -10.954  0.4952E+02  0.5949E+01
    -10.883  0.1205E+03  0.1457E+02
    -10.811  0.1052E+03  0.2209E+02
    -10.740  0.2664E+03  0.4115E+02
    -10.668  0.2684E+03  0.6035E+02
    -10.597  0.1573E+03  0.7160E+02
    -10.525  0.5561E+01  0.7200E+02
    -10.454  0.5763E-02  0.7200E+02
    -10.382  0.1304E-06  0.7200E+02
    -10.311  0.5587E-13  0.7200E+02
    -10.239  0.0000E+00  0.7200E+02
    -10.168  0.0000E+00  0.7200E+02
    -10.096  0.0000E+00  0.7200E+02
    -10.024  0.0000E+00  0.7200E+02
     -9.953  0.0000E+00  0.7200E+02
     -9.881  0.0000E+00  0.7200E+02
     -9.810  0.0000E+00  0.7200E+02
     -9.738  0.0000E+00  0.7200E+02
     -9.667  0.0000E+00  0.7200E+02
     -9.595  0.0000E+00  0.7200E+02
     -9.524  0.0000E+00  0.7200E+02
     -9.452  0.0000E+00  0.7200E+02
     -9.381  0.0000E+00  0.7200E+02
     -9.309  0.0000E+00  0.7200E+02
     -9.238  0.0000E+00  0.7200E+02
     -9.166  0.0000E+00  0.7200E+02
     -9.095  0.0000E+00  0.7200E+02
     -9.023  0.0000E+00  0.7200E+02
     -8.951  0.0000E+00  0.7200E+02
     -8.880  0.0000E+00  0.7200E+02
     -8.808  0.0000E+00  0.7200E+02
     -8.737  0.0000E+00  0.7200E+02
     -8.665  0.0000E+00  0.7200E+02
     -8.594  0.0000E+00  0.7200E+02
     -8.522  0.0000E+00  0.7200E+02
     -8.451  0.0000E+00  0.7200E+02
     -8.379  0.0000E+00  0.7200E+02
     -8.308  0.0000E+00  0.7200E+02
     -8.236  0.0000E+00  0.7200E+02
     -8.165  0.0000E+00  0.7200E+02
     -8.093  0.0000E+00  0.7200E+02
     -8.022  0.0000E+00  0.7200E+02
     -7.950  0.0000E+00  0.7200E+02
     -7.878  0.0000E+00  0.7200E+02
     -7.807  0.0000E+00  0.7200E+02
     -7.735  0.0000E+00  0.7200E+02
     -7.664  0.0000E+00  0.7200E+02
     -7.592  0.0000E+00  0.7200E+02
     -7.521  0.0000E+00  0.7200E+02
     -7.449  0.0000E+00  0.7200E+02
     -7.378  0.0000E+00  0.7200E+02
     -7.306  0.0000E+00  0.7200E+02
     -7.235  0.0000E+00  0.7200E+02
     -7.163  0.0000E+00  0.7200E+02
     -7.092  0.0000E+00  0.7200E+02
     -7.020  0.0000E+00  0.7200E+02
     -6.948  0.0000E+00  0.7200E+02
     -6.877  0.7261E-10  0.7200E+02
     -6.805  0.1857E-04  0.7200E+02
     -6.734  0.9933E-01  0.7201E+02
     -6.662  0.1479E+02  0.7306E+02
     -6.591  0.1593E+03  0.8446E+02
     -6.519  0.5055E+03  0.1206E+03
     -6.448  0.6570E+03  0.1676E+03
     -6.376  0.6021E+03  0.2107E+03
     -6.305  0.4713E+03  0.2444E+03
     -6.233  0.5980E+03  0.2872E+03
     -6.162  0.7875E+03  0.3435E+03
     -6.090  0.4441E+03  0.3753E+03
     -6.019  0.1367E+03  0.3851E+03
     -5.947  0.2137E+03  0.4003E+03
     -5.875  0.2469E+02  0.4021E+03
     -5.804  0.1751E+02  0.4034E+03
     -5.732  0.2532E+02  0.4052E+03
     -5.661  0.2032E+03  0.4197E+03
     -5.589  0.1638E+03  0.4314E+03
     -5.518  0.7921E+01  0.4320E+03
     -5.446  0.1305E-01  0.4320E+03
     -5.375  0.4899E-06  0.4320E+03
     -5.303  0.3539E-12  0.4320E+03
     -5.232  0.0000E+00  0.4320E+03
     -5.160  0.0000E+00  0.4320E+03
     -5.089  0.0000E+00  0.4320E+03
     -5.017  0.0000E+00  0.4320E+03
     -4.946  0.0000E+00  0.4320E+03
     -4.874  0.0000E+00  0.4320E+03
     -4.802  0.0000E+00  0.4320E+03
     -4.731  0.0000E+00  0.4320E+03
     -4.659  0.0000E+00  0.4320E+03
     -4.588  0.0000E+00  0.4320E+03
     -4.516  0.0000E+00  0.4320E+03
     -4.445  0.0000E+00  0.4320E+03
     -4.373  0.0000E+00  0.4320E+03
     -4.302  0.0000E+00  0.4320E+03
     -4.230  0.0000E+00  0.4320E+03
     -4.159  0.0000E+00  0.4320E+03
     -4.087  0.0000E+00  0.4320E+03
     -4.016  0.0000E+00  0.4320E+03
     -3.944  0.0000E+00  0.4320E+03
     -3.873  0.0000E+00  0.4320E+03
     -3.801  0.0000E+00  0.4320E+03
     -3.729  0.0000E+00  0.4320E+03
     -3.658  0.0000E+00  0.4320E+03
     -3.586  0.1552E-14  0.4320E+03
     -3.515  0.6802E-08  0.4320E+03
     -3.443  0.3730E-03  0.4320E+03
     -3.372  0.4120E+00  0.4320E+03
     -3.300  0.1186E+02  0.4329E+03
     -3.229  0.1482E+02  0.4339E+03
     -3.157  0.8585E+00  0.4340E+03
     -3.086  0.3027E-01  0.4340E+03
     -3.014  0.8231E+01  0.4346E+03
     -2.943  0.7925E+02  0.4403E+03
     -2.871  0.1282E+03  0.4494E+03
     -2.799  0.6221E+02  0.4539E+03
     -2.728  0.2366E+01  0.4541E+03
     -2.656  0.3541E+02  0.4566E+03
     -2.585  0.6931E+02  0.4615E+03
     -2.513  0.4358E+02  0.4647E+03
     -2.442  0.2274E+03  0.4809E+03
     -2.370  0.7013E+02  0.4859E+03
     -2.299  0.7933E+00  0.4860E+03
     -2.227  0.2092E-03  0.4860E+03
     -2.156  0.2960E-02  0.4860E+03
     -2.084  0.1782E+01  0.4861E+03
     -2.013  0.3063E+02  0.4883E+03
     -1.941  0.6740E+02  0.4931E+03
     -1.870  0.1103E+03  0.5010E+03
     -1.798  0.1351E+02  0.5020E+03
     -1.726  0.5196E-01  0.5020E+03
     -1.655  0.1402E-02  0.5020E+03
     -1.583  0.1892E+01  0.5021E+03
     -1.512  0.6786E+02  0.5070E+03
     -1.440  0.1309E+03  0.5164E+03
     -1.369  0.7872E+02  0.5220E+03
     -1.297  0.5378E+02  0.5258E+03
     -1.226  0.2382E+01  0.5260E+03
     -1.154  0.2858E-02  0.5260E+03
     -1.083  0.6984E-07  0.5260E+03
     -1.011  0.1219E-06  0.5260E+03
     -0.940  0.4182E-02  0.5260E+03
     -0.868  0.2944E+01  0.5262E+03
     -0.797  0.5680E+02  0.5303E+03
     -0.725  0.5014E+02  0.5339E+03
     -0.653  0.5944E+01  0.5343E+03
     -0.582  0.8873E+02  0.5406E+03
     -0.510  0.1214E+03  0.5493E+03
     -0.439  0.1026E+02  0.5500E+03
     -0.367  0.6629E+02  0.5548E+03
     -0.296  0.2286E+03  0.5711E+03
     -0.224  0.3969E+02  0.5740E+03
     -0.153  0.8045E+01  0.5746E+03
     -0.081  0.1991E+03  0.5888E+03
     -0.010  0.2281E+03  0.6051E+03
      0.062  0.1227E+02  0.6060E+03
      0.133  0.2499E+01  0.6062E+03
      0.205  0.7202E+02  0.6113E+03
      0.276  0.1121E+03  0.6194E+03
      0.348  0.3529E+02  0.6219E+03
      0.420  0.1724E+02  0.6231E+03
      0.491  0.1115E+03  0.6311E+03
      0.563  0.4187E+02  0.6341E+03
      0.634  0.4811E+02  0.6375E+03
      0.706  0.5919E+02  0.6418E+03
      0.777  0.3411E+01  0.6420E+03
      0.849  0.1084E-01  0.6420E+03
      0.920  0.1867E+01  0.6421E+03
      0.992  0.2811E+02  0.6441E+03
      1.063  0.4674E+02  0.6475E+03
      1.135  0.7114E+01  0.6480E+03
      1.206  0.4219E-01  0.6480E+03
      1.278  0.5670E-05  0.6480E+03
      1.350  0.1453E-10  0.6480E+03
      1.421  0.0000E+00  0.6480E+03
      1.493  0.0000E+00  0.6480E+03
      1.564  0.0000E+00  0.6480E+03
      1.636  0.0000E+00  0.6480E+03
      1.707  0.0000E+00  0.6480E+03
      1.779  0.8219E-10  0.6480E+03
      1.850  0.1647E-04  0.6480E+03
      1.922  0.6386E-01  0.6480E+03
      1.993  0.5757E+01  0.6484E+03
      2.065  0.1898E+02  0.6498E+03
      2.136  0.3143E+01  0.6500E+03
      2.208  0.1706E-01  0.6500E+03
      2.279  0.2044E-05  0.6500E+03
      2.351  0.4647E-11  0.6500E+03
      2.423  0.0000E+00  0.6500E+03
      2.494  0.0000E+00  0.6500E+03
      2.566  0.0000E+00  0.6500E+03
      2.637  0.0000E+00  0.6500E+03
      2.709  0.0000E+00  0.6500E+03
      2.780  0.0000E+00  0.6500E+03
      2.852  0.0000E+00  0.6500E+03
      2.923  0.0000E+00  0.6500E+03
      2.995  0.0000E+00  0.6500E+03
      3.066  0.0000E+00  0.6500E+03
      3.138  0.0000E+00  0.6500E+03
      3.209  0.0000E+00  0.6500E+03
      3.281  0.0000E+00  0.6500E+03
      3.352  0.1335E-12  0.6500E+03
      3.424  0.1470E-06  0.6500E+03
      3.496  0.3028E-02  0.6500E+03
      3.567  0.1326E+01  0.6501E+03
      3.639  0.2101E+02  0.6516E+03
      3.710  0.4648E+02  0.6549E+03
      3.782  0.1483E+02  0.6560E+03
      3.853  0.2236E+00  0.6560E+03
      3.925  0.8197E-04  0.6560E+03
      3.996  0.5874E-09  0.6560E+03
      4.068  0.1562E-06  0.6560E+03
      4.139  0.5633E-02  0.6560E+03
      4.211  0.4160E+01  0.6563E+03
      4.282  0.8376E+02  0.6623E+03
      4.354  0.7671E+02  0.6678E+03
      4.425  0.3132E+01  0.6680E+03
      4.497  0.1039E+02  0.6687E+03
      4.569  0.1783E+03  0.6815E+03
      4.640  0.1419E+03  0.6916E+03
      4.712  0.4901E+01  0.6920E+03
      4.783  0.1693E+01  0.6921E+03
      4.855  0.6238E+02  0.6966E+03
      4.926  0.9656E+02  0.7035E+03
      4.998  0.7106E+01  0.7040E+03
      5.069  0.1515E-01  0.7040E+03
      5.141  0.3279E+00  0.7040E+03
      5.212  0.2563E+02  0.7059E+03
      5.284  0.7488E+02  0.7112E+03
      5.355  0.1094E+02  0.7120E+03
      5.427  0.5956E-01  0.7120E+03
      5.499  0.3084E+01  0.7122E+03
      5.570  0.3413E+02  0.7147E+03
      5.642  0.1830E+02  0.7160E+03
      5.713  0.3980E+00  0.7160E+03
      5.785  0.2416E-03  0.7160E+03
      5.856  0.1474E+00  0.7160E+03
      5.928  0.1803E+02  0.7173E+03
      5.999  0.7695E+02  0.7228E+03
      6.071  0.1658E+02  0.7240E+03
      6.142  0.2819E+00  0.7240E+03
      6.214  0.2456E+02  0.7258E+03
      6.285  0.2029E+03  0.7403E+03
      6.357  0.2481E+03  0.7580E+03
      6.428  0.2745E+02  0.7600E+03
      6.500  0.1054E+00  0.7600E+03
      6.572  0.8817E-05  0.7600E+03
      6.643  0.1389E-10  0.7600E+03
      6.715  0.1726E-11  0.7600E+03
      6.786  0.1414E-05  0.7600E+03
      6.858  0.2172E-01  0.7600E+03
      6.929  0.7170E+01  0.7605E+03
      7.001  0.8220E+02  0.7664E+03
      7.072  0.1511E+03  0.7772E+03
      7.144  0.9113E+02  0.7837E+03
      7.215  0.3932E+01  0.7840E+03
      7.287  0.6497E+01  0.7845E+03
      7.358  0.8914E+02  0.7908E+03
      7.430  0.6907E+02  0.7958E+03
      7.501  0.3024E+01  0.7960E+03
      7.573  0.5610E-01  0.7960E+03
      7.645  0.7016E+01  0.7965E+03
      7.716  0.6859E+02  0.8014E+03
      7.788  0.6105E+02  0.8058E+03
      7.859  0.3124E+01  0.8060E+03
      7.931  0.1247E+02  0.8069E+03
      8.002  0.1337E+03  0.8165E+03
      8.074  0.7543E+02  0.8219E+03
      8.145  0.1995E+01  0.8220E+03
      8.217  0.2874E+01  0.8222E+03
      8.288  0.6011E+02  0.8265E+03
      8.360  0.7142E+02  0.8316E+03
      8.431  0.5369E+01  0.8320E+03
      8.503  0.1708E-01  0.8320E+03
      8.574  0.1489E-05  0.8320E+03
      8.646  0.2728E-11  0.8320E+03
      8.718  0.0000E+00  0.8320E+03
      8.789  0.0000E+00  0.8320E+03
      8.861  0.0000E+00  0.8320E+03
      8.932  0.0000E+00  0.8320E+03
      9.004  0.0000E+00  0.8320E+03
      9.075  0.0000E+00  0.8320E+03
      9.147  0.0000E+00  0.8320E+03
      9.218  0.0000E+00  0.8320E+03
      9.290  0.0000E+00  0.8320E+03
