 vasp.6.4.2 20Jul23 (build Sep 17 2025 15:35:10) complex                        
  
 executed on             LinuxIFC date 2025.10.01  23:07:12
 running   32 mpi-ranks, on    1 nodes
 distrk:  each k-point on   32 cores,    1 groups
 distr:  one band on NCORE=   1 cores,   32 groups


--------------------------------------------------------------------------------------------------------


 INCAR:
   YSTEM = CdS Calculation
   PREC = Accurate
   ENCUT = 400
   ISTART = 0
   ICHARG = 2
   ISMEAR = 0
   SIGMA = 0.05
   EDIFF = 1E-6
   NELM = 100
   LREAL = .FALSE.
   GGA = PS
   LWAVE = .FALSE.
   LCHARG = .FALSE.

 POTCAR:    PAW_PBE Cd 06Sep2000                  
 POTCAR:    PAW_PBE S 06Sep2000                   
 -----------------------------------------------------------------------------
|                                                                             |
|           W    W    AA    RRRRR   N    N  II  N    N   GGGG   !!!           |
|           W    W   A  A   R    R  NN   N  II  NN   N  G    G  !!!           |
|           W    W  A    A  R    R  N N  N  II  N N  N  G       !!!           |
|           W WW W  AAAAAA  RRRRR   N  N N  II  N  N N  G  GGG   !            |
|           WW  WW  A    A  R   R   N   NN  II  N   NN  G    G                |
|           W    W  A    A  R    R  N    N  II  N    N   GGGG   !!!           |
|                                                                             |
|     For optimal performance we recommend to set                             |
|       NCORE = 2 up to number-of-cores-per-socket                            |
|     NCORE specifies how many cores store one orbital (NPAR=cpu/NCORE).      |
|     This setting can greatly improve the performance of VASP for DFT.       |
|     The default, NCORE=1 might be grossly inefficient on modern             |
|     multi-core architectures or massively parallel machines. Do your        |
|     own testing! More info at https://www.vasp.at/wiki/index.php/NCORE      |
|     Unfortunately you need to use the default for GW and RPA                |
|     calculations (for HF NCORE is supported but not extensively tested      |
|     yet).                                                                   |
|                                                                             |
 -----------------------------------------------------------------------------

 POTCAR:    PAW_PBE Cd 06Sep2000                  
   SHA256 =  8b7ca71966beae5276c8bb910adb3ecc013a3354c27473914c94cd54c83be4f7 Cd/POTCAR             
   COPYR  = (c) Copyright 06Sep2000 Georg Kresse                                                    
   COPYR  = This file is part of the software VASP. Any use, copying, and all other rights are regul
   COPYR  = If you do not have a valid VASP license, you may not use, copy or distribute this file. 
   VRHFIN =Cd : s2 d10                                                                              
   LEXCH  = PE                                                                                      
   EATOM  =  1293.1815 eV,   95.0462 Ry                                                             
                                                                                                    
   TITEL  = PAW_PBE Cd 06Sep2000                                                                    
   LULTRA =        F    use ultrasoft PP ?                                                          
   IUNSCR =        1    unscreen: 0-lin 1-nonlin 2-no                                               
   RPACOR =    2.000    partial core radius                                                         
   POMASS =  112.411; ZVAL   =   12.000    mass and valenz                                          
   RCORE  =    2.300    outmost cutoff radius                                                       
   RWIGS  =    2.980; RWIGS  =    1.577    wigner-seitz radius (au A)                               
   ENMAX  =  274.336; ENMIN  =  205.752 eV                                                          
   RCLOC  =    2.054    cutoff for local pot                                                        
   LCOR   =        T    correct aug charges                                                         
   LPAW   =        T    paw PP                                                                      
   EAUG   =  456.106                                                                                
   DEXC   =    0.000                                                                                
   RMAX   =    2.358    core radius for proj-oper                                                   
   RAUG   =    1.300    factor for augmentation sphere                                              
   RDEP   =    2.450    radius for radial grids                                                     
   RDEPT  =    1.955    core radius for aug-charge                                                  
                                                                                                    
   Atomic configuration                                                                             
   12 entries                                                                                       
     n  l   j            E        occ.                                                              
     1  0  0.50    -26519.7817   2.0000                                                             
     2  0  0.50     -3936.9612   2.0000                                                             
     2  1  1.50     -3532.2230   6.0000                                                             
     3  0  0.50      -733.7908   2.0000                                                             
     3  1  1.50      -601.0792   6.0000                                                             
     3  2  2.50      -393.5307  10.0000                                                             
     4  0  0.50      -105.8977   2.0000                                                             
     4  1  1.50       -66.9488   6.0000                                                             
     4  2  2.50       -11.7331  10.0000                                                             
     5  0  0.50        -5.6592   2.0000                                                             
     5  1  0.50        -1.3606   0.0000                                                             
     4  3  2.50        -1.3606   0.0000                                                             
   Description                                                                                      
     l       E           TYP  RCUT    TYP  RCUT                                                     
     2    -11.7331479     23  2.300                                                                 
     2    -13.0937305     23  2.300                                                                 
     0     -5.6591502     23  2.300                                                                 
     0     -1.5561433     23  2.300                                                                 
     1     -2.7211652     23  2.300                                                                 
     1      8.3548275     23  2.300                                                                 
  local pseudopotential read in
  partial core-charges read in
  partial kinetic energy density read in
  atomic valenz-charges read in
  non local Contribution for L=           2  read in
    real space projection operators read in
  non local Contribution for L=           2  read in
    real space projection operators read in
  non local Contribution for L=           0  read in
    real space projection operators read in
  non local Contribution for L=           0  read in
    real space projection operators read in
  non local Contribution for L=           1  read in
    real space projection operators read in
  non local Contribution for L=           1  read in
    real space projection operators read in
    PAW grid and wavefunctions read in
 
   number of l-projection  operators is LMAX  =           6
   number of lm-projection operators is LMMAX =          18
 
 POTCAR:    PAW_PBE S 06Sep2000                   
   SHA256 =  0fc7481fb0695f01bdc6462160264c5c84044ae9ec85a907d398b887a2bc3132 S/POTCAR              
   COPYR  = (c) Copyright 06Sep2000 Georg Kresse                                                    
   COPYR  = This file is part of the software VASP. Any use, copying, and all other rights are regul
   COPYR  = If you do not have a valid VASP license, you may not use, copy or distribute this file. 
   VRHFIN =S : s2p4                                                                                 
   LEXCH  = PE                                                                                      
   EATOM  =   276.8230 eV,   20.3459 Ry                                                             
                                                                                                    
   TITEL  = PAW_PBE S 06Sep2000                                                                     
   LULTRA =        F    use ultrasoft PP ?                                                          
   IUNSCR =        1    unscreen: 0-lin 1-nonlin 2-no                                               
   RPACOR =    1.500    partial core radius                                                         
   POMASS =   32.066; ZVAL   =    6.000    mass and valenz                                          
   RCORE  =    1.900    outmost cutoff radius                                                       
   RWIGS  =    2.200; RWIGS  =    1.164    wigner-seitz radius (au A)                               
   ENMAX  =  258.689; ENMIN  =  194.016 eV                                                          
   ICORE  =        2    local potential                                                             
   LCOR   =        T    correct aug charges                                                         
   LPAW   =        T    paw PP                                                                      
   EAUG   =  335.092                                                                                
   DEXC   =    0.000                                                                                
   RMAX   =    1.942    core radius for proj-oper                                                   
   RAUG   =    1.300    factor for augmentation sphere                                              
   RDEP   =    1.954    radius for radial grids                                                     
   RDEPT  =    1.744    core radius for aug-charge                                                  
                                                                                                    
   Atomic configuration                                                                             
    6 entries                                                                                       
     n  l   j            E        occ.                                                              
     1  0  0.50     -2405.8406   2.0000                                                             
     2  0  0.50      -211.7007   2.0000                                                             
     2  1  1.50      -156.4958   6.0000                                                             
     3  0  0.50       -17.2562   2.0000                                                             
     3  1  0.50        -7.0085   4.0000                                                             
     3  2  1.50        -6.8029   0.0000                                                             
   Description                                                                                      
     l       E           TYP  RCUT    TYP  RCUT                                                     
     0    -17.2561641     23  1.900                                                                 
     0    -15.8743224     23  1.900                                                                 
     1     -7.0085400     23  1.900                                                                 
     1     -2.7779785     23  1.900                                                                 
     2     -6.8029130     23  1.900                                                                 
  local pseudopotential read in
  partial core-charges read in
  partial kinetic energy density read in
  atomic valenz-charges read in
  non local Contribution for L=           0  read in
    real space projection operators read in
  non local Contribution for L=           0  read in
    real space projection operators read in
  non local Contribution for L=           1  read in
    real space projection operators read in
  non local Contribution for L=           1  read in
    real space projection operators read in
    PAW grid and wavefunctions read in
 
   number of l-projection  operators is LMAX  =           4
   number of lm-projection operators is LMMAX =           8
 
 -----------------------------------------------------------------------------
|                                                                             |
|               ----> ADVICE to this user running VASP <----                  |
|                                                                             |
|     You have a (more or less) 'large supercell' and for larger cells it     |
|     might be more efficient to use real-space projection operators.         |
|     Therefore, try LREAL= Auto in the INCAR file.                           |
|     Mind: For very accurate calculation, you might also keep the            |
|     reciprocal projection scheme (i.e. LREAL=.FALSE.).                      |
|                                                                             |
 -----------------------------------------------------------------------------

 -----------------------------------------------------------------------------
|                                                                             |
|               ----> ADVICE to this user running VASP <----                  |
|                                                                             |
|     You enforced a specific xc type in the INCAR file but a different       |
|     type was found in the POTCAR file.                                      |
|     I HOPE YOU KNOW WHAT YOU ARE DOING!                                     |
|                                                                             |
 -----------------------------------------------------------------------------

  PAW_PBE Cd 06Sep2000                  :
 energy of atom  1       EATOM=-1293.1815
 kinetic energy error for atom=    0.0223 (will be added to EATOM!!)
  PAW_PBE S 06Sep2000                   :
 energy of atom  2       EATOM= -276.8230
 kinetic energy error for atom=    0.0046 (will be added to EATOM!!)
 
 
 POSCAR: Cd S
  positions in direct lattice
  velocities in cartesian coordinates
  No initial velocities read in
 exchange correlation table for  LEXCH =       14
   RHO(1)=    0.500       N(1)  =     2000
   RHO(2)=  100.500       N(2)  =     4000
 


--------------------------------------------------------------------------------------------------------


 ion  position               nearest neighbor table
   1  0.222  0.111  0.250-   4 2.55  28 2.55  20 2.55   3 2.55
   2  0.111  0.222  0.000-   7 2.55  15 2.55  55 2.55   4 2.55
   3  0.222  0.111  0.438-   6 2.55  30 2.55  22 2.55   1 2.55
   4  0.111  0.222  0.188-   1 2.55   9 2.55  49 2.55   2 2.55
   5  0.222  0.111  0.750-   8 2.55  32 2.55  24 2.55   7 2.55
   6  0.111  0.222  0.500-   3 2.55  11 2.55  51 2.55   8 2.55
   7  0.222  0.111  0.938-   2 2.55  26 2.55  18 2.55   5 2.55
   8  0.111  0.222  0.688-   5 2.55  13 2.55  53 2.55   6 2.55
   9  0.222  0.444  0.250-   4 2.55  12 2.55  36 2.55  11 2.55
  10  0.111  0.556  0.000-  15 2.55  23 2.55  63 2.55  12 2.55
  11  0.222  0.444  0.438-   6 2.55  14 2.55  38 2.55   9 2.55
  12  0.111  0.556  0.188-   9 2.55  17 2.55  57 2.55  10 2.55
  13  0.222  0.444  0.750-   8 2.55  16 2.55  40 2.55  15 2.55
  14  0.111  0.556  0.500-  11 2.55  19 2.55  59 2.55  16 2.55
  15  0.222  0.444  0.938-   2 2.55  10 2.55  34 2.55  13 2.55
  16  0.111  0.556  0.688-  13 2.55  21 2.55  61 2.55  14 2.55
  17  0.222  0.778  0.250-  20 2.55  12 2.55  44 2.55  19 2.55
  18  0.111  0.889  0.000-  23 2.55   7 2.55  71 2.55  20 2.55
  19  0.222  0.778  0.438-  22 2.55  14 2.55  46 2.55  17 2.55
  20  0.111  0.889  0.188-  17 2.55   1 2.55  65 2.55  18 2.55
  21  0.222  0.778  0.750-  24 2.55  16 2.55  48 2.55  23 2.55
  22  0.111  0.889  0.500-  19 2.55   3 2.55  67 2.55  24 2.55
  23  0.222  0.778  0.938-  18 2.55  10 2.55  42 2.55  21 2.55
  24  0.111  0.889  0.688-  21 2.55   5 2.55  69 2.55  22 2.55
  25  0.556  0.111  0.250-  28 2.55  52 2.55  44 2.55  27 2.55
  26  0.444  0.222  0.000-  31 2.55   7 2.55  39 2.55  28 2.55
  27  0.556  0.111  0.438-  30 2.55  54 2.55  46 2.55  25 2.55
  28  0.444  0.222  0.188-  25 2.55   1 2.55  33 2.55  26 2.55
  29  0.556  0.111  0.750-  32 2.55  56 2.55  48 2.55  31 2.55
  30  0.444  0.222  0.500-  27 2.55   3 2.55  35 2.55  32 2.55
  31  0.556  0.111  0.938-  26 2.55  50 2.55  42 2.55  29 2.55
  32  0.444  0.222  0.688-  29 2.55   5 2.55  37 2.55  30 2.55
  33  0.556  0.444  0.250-  28 2.55  60 2.55  36 2.55  35 2.55
  34  0.444  0.556  0.000-  15 2.55  47 2.55  39 2.55  36 2.55
  35  0.556  0.444  0.438-  30 2.55  62 2.55  38 2.55  33 2.55
  36  0.444  0.556  0.188-   9 2.55  41 2.55  33 2.55  34 2.55
  37  0.556  0.444  0.750-  32 2.55  64 2.55  40 2.55  39 2.55
  38  0.444  0.556  0.500-  11 2.55  43 2.55  35 2.55  40 2.55
  39  0.556  0.444  0.938-  26 2.55  58 2.55  34 2.55  37 2.55
  40  0.444  0.556  0.688-  13 2.55  45 2.55  37 2.55  38 2.55
  41  0.556  0.778  0.250-  44 2.55  36 2.55  68 2.55  43 2.55
  42  0.444  0.889  0.000-  47 2.55  23 2.55  31 2.55  44 2.55
  43  0.556  0.778  0.438-  46 2.55  38 2.55  70 2.55  41 2.55
  44  0.444  0.889  0.188-  41 2.55  17 2.55  25 2.55  42 2.55
  45  0.556  0.778  0.750-  48 2.55  40 2.55  72 2.55  47 2.55
  46  0.444  0.889  0.500-  43 2.55  19 2.55  27 2.55  48 2.55
  47  0.556  0.778  0.938-  42 2.55  34 2.55  66 2.55  45 2.55
  48  0.444  0.889  0.688-  45 2.55  21 2.55  29 2.55  46 2.55
  49  0.889  0.111  0.250-  52 2.55   4 2.55  68 2.55  51 2.55
  50  0.778  0.222  0.000-  55 2.55  31 2.55  63 2.55  52 2.55
  51  0.889  0.111  0.438-  54 2.55   6 2.55  70 2.55  49 2.55
  52  0.778  0.222  0.188-  49 2.55  25 2.55  57 2.55  50 2.55
  53  0.889  0.111  0.750-  56 2.55   8 2.55  72 2.55  55 2.55
  54  0.778  0.222  0.500-  51 2.55  27 2.55  59 2.55  56 2.55
  55  0.889  0.111  0.938-  50 2.55   2 2.55  66 2.55  53 2.55
  56  0.778  0.222  0.688-  53 2.55  29 2.55  61 2.55  54 2.55
  57  0.889  0.444  0.250-  52 2.55  60 2.55  12 2.55  59 2.55
  58  0.778  0.556  0.000-  39 2.55  63 2.55  71 2.55  60 2.55
  59  0.889  0.444  0.438-  54 2.55  62 2.55  14 2.55  57 2.55
  60  0.778  0.556  0.188-  33 2.55  57 2.55  65 2.55  58 2.55
  61  0.889  0.444  0.750-  56 2.55  64 2.55  16 2.55  63 2.55
  62  0.778  0.556  0.500-  35 2.55  59 2.55  67 2.55  64 2.55
  63  0.889  0.444  0.938-  50 2.55  58 2.55  10 2.55  61 2.55
  64  0.778  0.556  0.688-  37 2.55  61 2.55  69 2.55  62 2.55
  65  0.889  0.778  0.250-  68 2.55  60 2.55  20 2.55  67 2.55
  66  0.778  0.889  0.000-  71 2.55  47 2.55  55 2.55  68 2.55
  67  0.889  0.778  0.438-  70 2.55  62 2.55  22 2.55  65 2.55
  68  0.778  0.889  0.188-  65 2.55  41 2.55  49 2.55  66 2.55
  69  0.889  0.778  0.750-  72 2.55  64 2.55  24 2.55  71 2.55
  70  0.778  0.889  0.500-  67 2.55  43 2.55  51 2.55  72 2.55
  71  0.889  0.778  0.938-  66 2.55  58 2.55  18 2.55  69 2.55
  72  0.778  0.889  0.688-  69 2.55  45 2.55  53 2.55  70 2.55
 
  LATTYP: Found a hexagonal cell.
 ALAT       =    12.5065142985
 C/A-ratio  =     1.0841737751
  
  Lattice vectors:
  
 A1 = (   6.2532571493, -10.8309590953,   0.0000000000)
 A2 = (   6.2532571493,  10.8309590953,   0.0000000000)
 A3 = (   0.0000000000,   0.0000000000,  13.5592348200)


Analysis of symmetry for initial positions (statically):
=====================================================================
 Subroutine PRICEL returns:
 Original cell was already a primitive cell.
 

 Routine SETGRP: Setting up the symmetry group for a 
 hexagonal supercell.


 Subroutine GETGRP returns: Found  1 space group operations
 (whereof  1 operations were pure point group operations)
 out of a pool of 24 trial point group operations.


The static configuration has the point symmetry C_1 .


Analysis of symmetry for dynamics (positions and initial velocities):
=====================================================================
 Subroutine PRICEL returns:
 Original cell was already a primitive cell.
 

 Routine SETGRP: Setting up the symmetry group for a 
 hexagonal supercell.


 Subroutine GETGRP returns: Found  1 space group operations
 (whereof  1 operations were pure point group operations)
 out of a pool of 24 trial point group operations.


The dynamic configuration has the point symmetry C_1 .


 Subroutine INISYM returns: Found  1 space group operations
 (whereof  1 operations are pure point group operations),
 and found     1 'primitive' translations


----------------------------------------------------------------------------------------

                                     Primitive cell                                     

  volume of cell :    1836.7007

  direct lattice vectors                    reciprocal lattice vectors
     6.253257149-10.830959095  0.000000000     0.079958330 -0.046163963  0.000000000
     6.253257149 10.830959095  0.000000000     0.079958330  0.046163963  0.000000000
     0.000000000  0.000000000 13.559234820     0.000000000  0.000000000  0.073750474

  length of vectors
    12.506514299 12.506514299 13.559234820     0.092327927  0.092327927  0.073750474

  position of ions in fractional coordinates (direct lattice)
     0.222222222  0.111111111  0.250112185
     0.111111111  0.222222222  0.000112185
     0.222222222  0.111111111  0.438387815
     0.111111111  0.222222222  0.188387815
     0.222222222  0.111111111  0.750112185
     0.111111111  0.222222222  0.500112185
     0.222222222  0.111111111  0.938387815
     0.111111111  0.222222222  0.688387815
     0.222222222  0.444444444  0.250112185
     0.111111111  0.555555556  0.000112185
     0.222222222  0.444444444  0.438387815
     0.111111111  0.555555556  0.188387815
     0.222222222  0.444444444  0.750112185
     0.111111111  0.555555556  0.500112185
     0.222222222  0.444444444  0.938387815
     0.111111111  0.555555556  0.688387815
     0.222222222  0.777777778  0.250112185
     0.111111111  0.888888889  0.000112185
     0.222222222  0.777777778  0.438387815
     0.111111111  0.888888889  0.188387815
     0.222222222  0.777777778  0.750112185
     0.111111111  0.888888889  0.500112185
     0.222222222  0.777777778  0.938387815
     0.111111111  0.888888889  0.688387815
     0.555555556  0.111111111  0.250112185
     0.444444444  0.222222222  0.000112185
     0.555555556  0.111111111  0.438387815
     0.444444444  0.222222222  0.188387815
     0.555555556  0.111111111  0.750112185
     0.444444444  0.222222222  0.500112185
     0.555555556  0.111111111  0.938387815
     0.444444444  0.222222222  0.688387815
     0.555555556  0.444444444  0.250112185
     0.444444444  0.555555556  0.000112185
     0.555555556  0.444444444  0.438387815
     0.444444444  0.555555556  0.188387815
     0.555555556  0.444444444  0.750112185
     0.444444444  0.555555556  0.500112185
     0.555555556  0.444444444  0.938387815
     0.444444444  0.555555556  0.688387815
     0.555555556  0.777777778  0.250112185
     0.444444444  0.888888889  0.000112185
     0.555555556  0.777777778  0.438387815
     0.444444444  0.888888889  0.188387815
     0.555555556  0.777777778  0.750112185
     0.444444444  0.888888889  0.500112185
     0.555555556  0.777777778  0.938387815
     0.444444444  0.888888889  0.688387815
     0.888888889  0.111111111  0.250112185
     0.777777778  0.222222222  0.000112185
     0.888888889  0.111111111  0.438387815
     0.777777778  0.222222222  0.188387815
     0.888888889  0.111111111  0.750112185
     0.777777778  0.222222222  0.500112185
     0.888888889  0.111111111  0.938387815
     0.777777778  0.222222222  0.688387815
     0.888888889  0.444444444  0.250112185
     0.777777778  0.555555556  0.000112185
     0.888888889  0.444444444  0.438387815
     0.777777778  0.555555556  0.188387815
     0.888888889  0.444444444  0.750112185
     0.777777778  0.555555556  0.500112185
     0.888888889  0.444444444  0.938387815
     0.777777778  0.555555556  0.688387815
     0.888888889  0.777777778  0.250112185
     0.777777778  0.888888889  0.000112185
     0.888888889  0.777777778  0.438387815
     0.777777778  0.888888889  0.188387815
     0.888888889  0.777777778  0.750112185
     0.777777778  0.888888889  0.500112185
     0.888888889  0.777777778  0.938387815
     0.777777778  0.888888889  0.688387815

  ion indices of the primitive-cell ions
   primitive index   ion index
                 1           1
                 2           2
                 3           3
                 4           4
                 5           5
                 6           6
                 7           7
                 8           8
                 9           9
                10          10
                11          11
                12          12
                13          13
                14          14
                15          15
                16          16
                17          17
                18          18
                19          19
                20          20
                21          21
                22          22
                23          23
                24          24
                25          25
                26          26
                27          27
                28          28
                29          29
                30          30
                31          31
                32          32
                33          33
                34          34
                35          35
                36          36
                37          37
                38          38
                39          39
                40          40
                41          41
                42          42
                43          43
                44          44
                45          45
                46          46
                47          47
                48          48
                49          49
                50          50
                51          51
                52          52
                53          53
                54          54
                55          55
                56          56
                57          57
                58          58
                59          59
                60          60
                61          61
                62          62
                63          63
                64          64
                65          65
                66          66
                67          67
                68          68
                69          69
                70          70
                71          71
                72          72

----------------------------------------------------------------------------------------

 
 
 KPOINTS: Automatic mesh                          

Automatic generation of k-mesh.
 Grid dimensions read from file:
 generate k-points for:    1    1    1

 Generating k-lattice:

  Cartesian coordinates                     Fractional coordinates (reciprocal lattice)
     0.079958330 -0.046163963  0.000000000     1.000000000  0.000000000  0.000000000
     0.079958330  0.046163963  0.000000000     0.000000000  1.000000000  0.000000000
     0.000000000  0.000000000  0.073750474     0.000000000  0.000000000  1.000000000

  Length of vectors
     0.092327927  0.092327927  0.073750474

  Shift w.r.t. Gamma in fractional coordinates (k-lattice)
     0.000000000  0.000000000  0.000000000

 
 Subroutine IBZKPT returns following result:
 ===========================================
 
 Found      1 irreducible k-points:
 
 Following reciprocal coordinates:
            Coordinates               Weight
  0.000000  0.000000  0.000000      1.000000
 
 Following cartesian coordinates:
            Coordinates               Weight
  0.000000  0.000000  0.000000      1.000000
 


--------------------------------------------------------------------------------------------------------




 Dimension of arrays:
   k-points           NKPTS =      1   k-points in BZ     NKDIM =      1   number of bands    NBANDS=    416
   number of dos      NEDOS =    301   number of ions     NIONS =     72
   non local maximal  LDIM  =      6   non local SUM 2l+1 LMDIM =     18
   total plane-waves  NPLWV = 635040
   max r-space proj   IRMAX =      1   max aug-charges    IRDMAX=  14819
   dimension x,y,z NGX =    84 NGY =   84 NGZ =   90
   dimension x,y,z NGXF=   168 NGYF=  168 NGZF=  180
   support grid    NGXF=   168 NGYF=  168 NGZF=  180
   ions per type =              36  36
   NGX,Y,Z   is equivalent  to a cutoff of  11.17, 11.17, 11.03 a.u.
   NGXF,Y,Z  is equivalent  to a cutoff of  22.33, 22.33, 22.07 a.u.

 SYSTEM =  unknown system                          
 POSCAR =  Cd S                                    

 Startparameter for this run:
   NWRITE =      2    write-flag & timer
   PREC   = accura    normal or accurate (medium, high low for compatibility)
   ISTART =      0    job   : 0-new  1-cont  2-samecut
   ICHARG =      2    charge: 1-file 2-atom 10-const
   ISPIN  =      1    spin polarized calculation?
   LNONCOLLINEAR =      F non collinear calculations
   LSORBIT =      F    spin-orbit coupling
   INIWAV =      1    electr: 0-lowe 1-rand  2-diag
   LASPH  =      F    aspherical Exc in radial PAW
 Electronic Relaxation 1
   ENCUT  =  400.0 eV  29.40 Ry    5.42 a.u.  20.39 20.39 22.11*2*pi/ulx,y,z
   ENINI  =  400.0     initial cutoff
   ENAUG  =  456.1 eV  augmentation charge cutoff
   NELM   =    100;   NELMIN=  2; NELMDL= -5     # of ELM steps 
   EDIFF  = 0.1E-05   stopping-criterion for ELM
   LREAL  =      F    real-space projection
   NLSPLINE    = F    spline interpolate recip. space projectors
   LCOMPAT=      F    compatible to vasp.4.4
   GGA_COMPAT  = T    GGA compatible to vasp.4.4-vasp.4.6
   LMAXPAW     = -100 max onsite density
   LMAXMIX     =    2 max onsite mixed and CHGCAR
   VOSKOWN=      0    Vosko Wilk Nusair interpolation
   ROPT   =    0.00000   0.00000
 Ionic relaxation
   EDIFFG = 0.1E-04   stopping-criterion for IOM
   NSW    =      0    number of steps for IOM
   NBLOCK =      1;   KBLOCK =      1    inner block; outer block 
   IBRION =     -1    ionic relax: 0-MD 1-quasi-New 2-CG
   NFREE  =      0    steps in history (QN), initial steepest desc. (CG)
   ISIF   =      2    stress and relaxation
   IWAVPR =     10    prediction:  0-non 1-charg 2-wave 3-comb
   ISYM   =      2    0-nonsym 1-usesym 2-fastsym
   LCORR  =      T    Harris-Foulkes like correction to forces

   POTIM  = 0.5000    time-step for ionic-motion
   TEIN   =    0.0    initial temperature
   TEBEG  =    0.0;   TEEND  =   0.0 temperature during run
   SMASS  =  -3.00    Nose mass-parameter (am)
   estimated Nose-frequenzy (Omega)   =  0.10E-29 period in steps = 0.13E+47 mass=  -0.357E-26a.u.
   SCALEE = 1.0000    scale energy and forces
   NPACO  =    256;   APACO  = 10.0  distance and # of slots for P.C.
   PSTRESS=    0.0 pullay stress

  Mass of Ions in am
   POMASS = 112.41 32.07
  Ionic Valenz
   ZVAL   =  12.00  6.00
  Atomic Wigner-Seitz radii
   RWIGS  =  -1.00 -1.00
  virtual crystal weights 
   VCA    =   1.00  1.00
   NELECT =     648.0000    total number of electrons
   NUPDOWN=      -1.0000    fix difference up-down

 DOS related values:
   EMIN   =  10.00;   EMAX   =-10.00  energy-range for DOS
   EFERMI =   0.00;   METHOD = LEGACY      
   ISMEAR =     0;   SIGMA  =   0.05  broadening in eV -4-tet -1-fermi 0-gaus

 Electronic relaxation 2 (details)
   IALGO  =     38    algorithm
   LDIAG  =      T    sub-space diagonalisation (order eigenvalues)
   LSUBROT=      F    optimize rotation matrix (better conditioning)
   TURBO    =      0    0=normal 1=particle mesh
   IRESTART =      0    0=no restart 2=restart with 2 vectors
   NREBOOT  =      0    no. of reboots
   NMIN     =      0    reboot dimension
   EREF     =   0.00    reference energy to select bands
   IMIX   =      4    mixing-type and parameters
     AMIX     =   0.40;   BMIX     =  1.00
     AMIX_MAG =   1.60;   BMIX_MAG =  1.00
     AMIN     =   0.10
     WC   =   100.;   INIMIX=   1;  MIXPRE=   1;  MAXMIX= -45

 Intra band minimization:
   WEIMIN = 0.0000     energy-eigenvalue tresh-hold
   EBREAK =  0.60E-09  absolut break condition
   DEPER  =   0.30     relativ break condition  

   TIME   =   0.40     timestep for ELM

  volume/ion in A,a.u.               =      25.51       172.15
  Fermi-wavevector in a.u.,A,eV,Ry     =   1.156788  2.186012 18.206746  1.338158
  Thomas-Fermi vector in A             =   2.293405
 
 Write flags
   LWAVE        =      F    write WAVECAR
   LDOWNSAMPLE  =      F    k-point downsampling of WAVECAR
   LCHARG       =      F    write CHGCAR
   LVTOT        =      F    write LOCPOT, total local potential
   LVHAR        =      F    write LOCPOT, Hartree potential only
   LELF         =      F    write electronic localiz. function (ELF)
   LORBIT       =      0    0 simple, 1 ext, 2 COOP (PROOUT), +10 PAW based schemes


 Dipole corrections
   LMONO  =      F    monopole corrections only (constant potential shift)
   LDIPOL =      F    correct potential (dipole corrections)
   IDIPOL =      0    1-x, 2-y, 3-z, 4-all directions 
   EPSILON=  1.0000000 bulk dielectric constant

 Exchange correlation treatment:
   GGA     =    PS    GGA type
   LEXCH   =    14    internal setting for exchange type
   LIBXC   =     F    Libxc                    
   VOSKOWN =     0    Vosko Wilk Nusair interpolation
   LHFCALC =     F    Hartree Fock is set to
   LHFONE  =     F    Hartree Fock one center treatment
   AEXX    =    0.0000 exact exchange contribution

 Linear response parameters
   LEPSILON=     F    determine dielectric tensor
   LRPA    =     F    only Hartree local field effects (RPA)
   LNABLA  =     F    use nabla operator in PAW spheres
   LVEL    =     F    velocity operator in full k-point grid
   CSHIFT  =0.1000    complex shift for real part using Kramers Kronig
   OMEGAMAX=  -1.0    maximum frequency
   DEG_THRESHOLD= 0.2000000E-02 threshold for treating states as degnerate
   RTIME   =   -0.100 relaxation time in fs
  (WPLASMAI=    0.000 imaginary part of plasma frequency in eV, 0.658/RTIME)
   DFIELD  = 0.0000000 0.0000000 0.0000000 field for delta impulse in time
 
  Optional k-point grid parameters
   LKPOINTS_OPT  =     F    use optional k-point grid
   KPOINTS_OPT_MODE=     1    mode for optional k-point grid
 
 Orbital magnetization related:
   ORBITALMAG=     F  switch on orbital magnetization
   LCHIMAG   =     F  perturbation theory with respect to B field
   DQ        =  0.001000  dq finite difference perturbation B field
   LLRAUG    =     F  two centre corrections for induced B field
   LBONE     =     F  B-component reconstruction in AE one-centre
   LVGVCALC  =     T  calculate vGv susceptibility
   LVGVAPPL  =     F  apply vGv susceptibility instead of pGv for G=0

 Random number generation:
   RANDOM_GENERATOR = DEFAULT
   PCG_SEED         = not used


--------------------------------------------------------------------------------------------------------


 Static calculation
 charge density and potential will be updated during run
 non-spin polarized calculation
 Variant of blocked Davidson
 Davidson routine will perform the subspace rotation
 perform sub-space diagonalisation
    after iterative eigenvector-optimisation
 modified Broyden-mixing scheme, WC =      100.0
 initial mixing is a Kerker type mixing with AMIX =  0.4000 and BMIX =      1.0000
 Hartree-type preconditioning will be used
 using additional bands           92
 reciprocal scheme for non local part
 use partial core corrections
 calculate Harris-corrections to forces 
   (improved forces if not selfconsistent)
 use gradient corrections 
 use of overlap-Matrix (Vanderbilt PP)
 Gauss-broadening in eV      SIGMA  =   0.05


--------------------------------------------------------------------------------------------------------


  energy-cutoff  :      400.00
  volume of cell :     1836.70
      direct lattice vectors                 reciprocal lattice vectors
     6.253257149-10.830959095  0.000000000     0.079958330 -0.046163963  0.000000000
     6.253257149 10.830959095  0.000000000     0.079958330  0.046163963  0.000000000
     0.000000000  0.000000000 13.559234820     0.000000000  0.000000000  0.073750474

  length of vectors
    12.506514299 12.506514299 13.559234820     0.092327927  0.092327927  0.073750474


 
 k-points in units of 2pi/SCALE and weight: Automatic mesh                          
   0.00000000  0.00000000  0.00000000       1.000
 
 k-points in reciprocal lattice and weights: Automatic mesh                          
   0.00000000  0.00000000  0.00000000       1.000
 
 position of ions in fractional coordinates (direct lattice) 
   0.22222222  0.11111111  0.25011218
   0.11111111  0.22222222  0.00011218
   0.22222222  0.11111111  0.43838781
   0.11111111  0.22222222  0.18838781
   0.22222222  0.11111111  0.75011218
   0.11111111  0.22222222  0.50011218
   0.22222222  0.11111111  0.93838781
   0.11111111  0.22222222  0.68838781
   0.22222222  0.44444444  0.25011218
   0.11111111  0.55555556  0.00011218
   0.22222222  0.44444444  0.43838781
   0.11111111  0.55555556  0.18838781
   0.22222222  0.44444444  0.75011218
   0.11111111  0.55555556  0.50011218
   0.22222222  0.44444444  0.93838781
   0.11111111  0.55555556  0.68838781
   0.22222222  0.77777778  0.25011218
   0.11111111  0.88888889  0.00011218
   0.22222222  0.77777778  0.43838781
   0.11111111  0.88888889  0.18838781
   0.22222222  0.77777778  0.75011218
   0.11111111  0.88888889  0.50011218
   0.22222222  0.77777778  0.93838781
   0.11111111  0.88888889  0.68838781
   0.55555556  0.11111111  0.25011218
   0.44444444  0.22222222  0.00011218
   0.55555556  0.11111111  0.43838781
   0.44444444  0.22222222  0.18838781
   0.55555556  0.11111111  0.75011218
   0.44444444  0.22222222  0.50011218
   0.55555556  0.11111111  0.93838781
   0.44444444  0.22222222  0.68838781
   0.55555556  0.44444444  0.25011218
   0.44444444  0.55555556  0.00011218
   0.55555556  0.44444444  0.43838781
   0.44444444  0.55555556  0.18838781
   0.55555556  0.44444444  0.75011218
   0.44444444  0.55555556  0.50011218
   0.55555556  0.44444444  0.93838781
   0.44444444  0.55555556  0.68838781
   0.55555556  0.77777778  0.25011218
   0.44444444  0.88888889  0.00011218
   0.55555556  0.77777778  0.43838781
   0.44444444  0.88888889  0.18838781
   0.55555556  0.77777778  0.75011218
   0.44444444  0.88888889  0.50011218
   0.55555556  0.77777778  0.93838781
   0.44444444  0.88888889  0.68838781
   0.88888889  0.11111111  0.25011218
   0.77777778  0.22222222  0.00011218
   0.88888889  0.11111111  0.43838781
   0.77777778  0.22222222  0.18838781
   0.88888889  0.11111111  0.75011218
   0.77777778  0.22222222  0.50011218
   0.88888889  0.11111111  0.93838781
   0.77777778  0.22222222  0.68838781
   0.88888889  0.44444444  0.25011218
   0.77777778  0.55555556  0.00011218
   0.88888889  0.44444444  0.43838781
   0.77777778  0.55555556  0.18838781
   0.88888889  0.44444444  0.75011218
   0.77777778  0.55555556  0.50011218
   0.88888889  0.44444444  0.93838781
   0.77777778  0.55555556  0.68838781
   0.88888889  0.77777778  0.25011218
   0.77777778  0.88888889  0.00011218
   0.88888889  0.77777778  0.43838781
   0.77777778  0.88888889  0.18838781
   0.88888889  0.77777778  0.75011218
   0.77777778  0.88888889  0.50011218
   0.88888889  0.77777778  0.93838781
   0.77777778  0.88888889  0.68838781
 
 position of ions in cartesian coordinates  (Angst):
   2.08441905 -1.20343990  3.39132985
   2.08441905  1.20343990  0.00152114
   2.08441905 -1.20343990  5.94420333
   2.08441905  1.20343990  2.55439462
   2.08441905 -1.20343990 10.17094726
   2.08441905  1.20343990  6.78113855
   2.08441905 -1.20343990 12.72382074
   2.08441905  1.20343990  9.33401203
   4.16883810  2.40687980  3.39132985
   4.16883810  4.81375960  0.00152114
   4.16883810  2.40687980  5.94420333
   4.16883810  4.81375960  2.55439462
   4.16883810  2.40687980 10.17094726
   4.16883810  4.81375960  6.78113855
   4.16883810  2.40687980 12.72382074
   4.16883810  4.81375960  9.33401203
   6.25325715  6.01719950  3.39132985
   6.25325715  8.42407930  0.00152114
   6.25325715  6.01719950  5.94420333
   6.25325715  8.42407930  2.55439462
   6.25325715  6.01719950 10.17094726
   6.25325715  8.42407930  6.78113855
   6.25325715  6.01719950 12.72382074
   6.25325715  8.42407930  9.33401203
   4.16883810 -4.81375960  3.39132985
   4.16883810 -2.40687980  0.00152114
   4.16883810 -4.81375960  5.94420333
   4.16883810 -2.40687980  2.55439462
   4.16883810 -4.81375960 10.17094726
   4.16883810 -2.40687980  6.78113855
   4.16883810 -4.81375960 12.72382074
   4.16883810 -2.40687980  9.33401203
   6.25325715 -1.20343990  3.39132985
   6.25325715  1.20343990  0.00152114
   6.25325715 -1.20343990  5.94420333
   6.25325715  1.20343990  2.55439462
   6.25325715 -1.20343990 10.17094726
   6.25325715  1.20343990  6.78113855
   6.25325715 -1.20343990 12.72382074
   6.25325715  1.20343990  9.33401203
   8.33767620  2.40687980  3.39132985
   8.33767620  4.81375960  0.00152114
   8.33767620  2.40687980  5.94420333
   8.33767620  4.81375960  2.55439462
   8.33767620  2.40687980 10.17094726
   8.33767620  4.81375960  6.78113855
   8.33767620  2.40687980 12.72382074
   8.33767620  4.81375960  9.33401203
   6.25325715 -8.42407930  3.39132985
   6.25325715 -6.01719950  0.00152114
   6.25325715 -8.42407930  5.94420333
   6.25325715 -6.01719950  2.55439462
   6.25325715 -8.42407930 10.17094726
   6.25325715 -6.01719950  6.78113855
   6.25325715 -8.42407930 12.72382074
   6.25325715 -6.01719950  9.33401203
   8.33767620 -4.81375960  3.39132985
   8.33767620 -2.40687980  0.00152114
   8.33767620 -4.81375960  5.94420333
   8.33767620 -2.40687980  2.55439462
   8.33767620 -4.81375960 10.17094726
   8.33767620 -2.40687980  6.78113855
   8.33767620 -4.81375960 12.72382074
   8.33767620 -2.40687980  9.33401203
  10.42209525 -1.20343990  3.39132985
  10.42209525  1.20343990  0.00152114
  10.42209525 -1.20343990  5.94420333
  10.42209525  1.20343990  2.55439462
  10.42209525 -1.20343990 10.17094726
  10.42209525  1.20343990  6.78113855
  10.42209525 -1.20343990 12.72382074
  10.42209525  1.20343990  9.33401203
 


--------------------------------------------------------------------------------------------------------


 k-point   1 :   0.0000 0.0000 0.0000  plane waves:   33411

 maximum and minimum number of plane-waves per node :     33411    33411

 maximum number of plane-waves:     33411
 maximum index in each direction: 
   IXMAX=   20   IYMAX=   20   IZMAX=   22
   IXMIN=  -20   IYMIN=  -20   IZMIN=  -22


 serial   3D FFT for wavefunctions
 parallel 3D FFT for charge:
    minimum data exchange during FFTs selected (reduces bandwidth)


 total amount of memory used by VASP MPI-rank0   130741. kBytes
=======================================================================

   base      :      30000. kBytes
   nonl-proj :      48153. kBytes
   fftplans  :       8559. kBytes
   grid      :      35755. kBytes
   one-center:       1119. kBytes
   wavefun   :       7155. kBytes
 
     INWAV:  cpu time      0.0001: real time      0.0001
 Broyden mixing: mesh for mixing (old mesh)
   NGX = 41   NGY = 41   NGZ = 45
  (NGX  =168   NGY  =168   NGZ  =180)
  gives a total of  75645 points

 initial charge density was supplied:
 charge density of overlapping atoms calculated
 number of electron     648.0000000 magnetization 
 keeping initial charge density in first step


--------------------------------------------------------------------------------------------------------


 Maximum index for augmentation-charges          624 (set IRDMAX)


--------------------------------------------------------------------------------------------------------


 First call to EWALD:  gamma=   0.145
 Maximum number of real-space cells 3x 3x 3
 Maximum number of reciprocal cells 3x 3x 3

    FEWALD:  cpu time      0.0018: real time      0.0018


--------------------------------------- Ionic step        1  -------------------------------------------




--------------------------------------- Iteration      1(   1)  ---------------------------------------


    POTLOK:  cpu time      0.0886: real time      0.1331
    SETDIJ:  cpu time      0.0076: real time      0.0421
     EDDAV:  cpu time      2.6655: real time      2.8608
       DOS:  cpu time      0.0019: real time      0.0027
    --------------------------------------------
      LOOP:  cpu time      2.7636: real time      3.0387

 eigenvalue-minimisations  :   832
 total energy-change (2. order) : 0.4072856E+04  (-0.2708387E+05)
 number of electron     648.0000000 magnetization 
 augmentation part      648.0000000 magnetization 

 Free energy of the ion-electron system (eV)
  ---------------------------------------------------
  alpha Z        PSCENC =      2675.77335074
  Ewald energy   TEWEN  =    -36680.42958573
  -Hartree energ DENC   =    -21546.76138559
  -exchange      EXHF   =         0.00000000
  -V(xc)+E(xc)   XCENC  =       685.13145792
  PAW double counting   =     50859.63822305   -49554.61650470
  entropy T*S    EENTRO =        -0.02223614
  eigenvalues    EBANDS =      1154.94188581
  atomic energy  EATOM  =     56479.20065936
  Solvation  Ediel_sol  =         0.00000000
  ---------------------------------------------------
  free energy    TOTEN  =      4072.85586472 eV

  energy without entropy =     4072.87810086  energy(sigma->0) =     4072.86698279


--------------------------------------------------------------------------------------------------------




--------------------------------------- Iteration      1(   2)  ---------------------------------------


     EDDAV:  cpu time      2.7835: real time      2.8106
       DOS:  cpu time      0.0004: real time      0.0004
    --------------------------------------------
      LOOP:  cpu time      2.7839: real time      2.8110

 eigenvalue-minimisations  :   896
 total energy-change (2. order) :-0.3950704E+04  (-0.3799325E+04)
 number of electron     648.0000000 magnetization 
 augmentation part      648.0000000 magnetization 

 Free energy of the ion-electron system (eV)
  ---------------------------------------------------
  alpha Z        PSCENC =      2675.77335074
  Ewald energy   TEWEN  =    -36680.42958573
  -Hartree energ DENC   =    -21546.76138559
  -exchange      EXHF   =         0.00000000
  -V(xc)+E(xc)   XCENC  =       685.13145792
  PAW double counting   =     50859.63822305   -49554.61650470
  entropy T*S    EENTRO =        -0.05066103
  eigenvalues    EBANDS =     -2795.73340848
  atomic energy  EATOM  =     56479.20065936
  Solvation  Ediel_sol  =         0.00000000
  ---------------------------------------------------
  free energy    TOTEN  =       122.15214554 eV

  energy without entropy =      122.20280658  energy(sigma->0) =      122.17747606


--------------------------------------------------------------------------------------------------------




--------------------------------------- Iteration      1(   3)  ---------------------------------------


     EDDAV:  cpu time      2.9032: real time      2.9277
       DOS:  cpu time      0.0004: real time      0.0004
    --------------------------------------------
      LOOP:  cpu time      2.9036: real time      2.9281

 eigenvalue-minimisations  :   960
 total energy-change (2. order) :-0.2831193E+03  (-0.2734459E+03)
 number of electron     648.0000000 magnetization 
 augmentation part      648.0000000 magnetization 

 Free energy of the ion-electron system (eV)
  ---------------------------------------------------
  alpha Z        PSCENC =      2675.77335074
  Ewald energy   TEWEN  =    -36680.42958573
  -Hartree energ DENC   =    -21546.76138559
  -exchange      EXHF   =         0.00000000
  -V(xc)+E(xc)   XCENC  =       685.13145792
  PAW double counting   =     50859.63822305   -49554.61650470
  entropy T*S    EENTRO =        -0.06984105
  eigenvalues    EBANDS =     -3078.83348535
  atomic energy  EATOM  =     56479.20065936
  Solvation  Ediel_sol  =         0.00000000
  ---------------------------------------------------
  free energy    TOTEN  =      -160.96711135 eV

  energy without entropy =     -160.89727030  energy(sigma->0) =     -160.93219082


--------------------------------------------------------------------------------------------------------




--------------------------------------- Iteration      1(   4)  ---------------------------------------


     EDDAV:  cpu time      2.7157: real time      2.7397
       DOS:  cpu time      0.0004: real time      0.0004
    --------------------------------------------
      LOOP:  cpu time      2.7161: real time      2.7401

 eigenvalue-minimisations  :   896
 total energy-change (2. order) :-0.5831118E+01  (-0.5769607E+01)
 number of electron     648.0000000 magnetization 
 augmentation part      648.0000000 magnetization 

 Free energy of the ion-electron system (eV)
  ---------------------------------------------------
  alpha Z        PSCENC =      2675.77335074
  Ewald energy   TEWEN  =    -36680.42958573
  -Hartree energ DENC   =    -21546.76138559
  -exchange      EXHF   =         0.00000000
  -V(xc)+E(xc)   XCENC  =       685.13145792
  PAW double counting   =     50859.63822305   -49554.61650470
  entropy T*S    EENTRO =        -0.06639910
  eigenvalues    EBANDS =     -3084.66804510
  atomic energy  EATOM  =     56479.20065936
  Solvation  Ediel_sol  =         0.00000000
  ---------------------------------------------------
  free energy    TOTEN  =      -166.79822913 eV

  energy without entropy =     -166.73183004  energy(sigma->0) =     -166.76502959


--------------------------------------------------------------------------------------------------------




--------------------------------------- Iteration      1(   5)  ---------------------------------------


     EDDAV:  cpu time      2.7832: real time      2.8051
       DOS:  cpu time      0.0004: real time      0.0004
    CHARGE:  cpu time      0.1377: real time      0.1389
    MIXING:  cpu time      0.0036: real time      0.0043
    --------------------------------------------
      LOOP:  cpu time      2.9249: real time      2.9487

 eigenvalue-minimisations  :   960
 total energy-change (2. order) :-0.1132666E+00  (-0.1132064E+00)
 number of electron     648.0000450 magnetization 
 augmentation part      169.6104148 magnetization 

 Broyden mixing:
  rms(total) = 0.58291E+01    rms(broyden)= 0.58291E+01
  rms(prec ) = 0.60969E+01
  weight for this iteration     100.00

 Free energy of the ion-electron system (eV)
  ---------------------------------------------------
  alpha Z        PSCENC =      2675.77335074
  Ewald energy   TEWEN  =    -36680.42958573
  -Hartree energ DENC   =    -21546.76138559
  -exchange      EXHF   =         0.00000000
  -V(xc)+E(xc)   XCENC  =       685.13145792
  PAW double counting   =     50859.63822305   -49554.61650470
  entropy T*S    EENTRO =        -0.06626444
  eigenvalues    EBANDS =     -3084.78144633
  atomic energy  EATOM  =     56479.20065936
  Solvation  Ediel_sol  =         0.00000000
  ---------------------------------------------------
  free energy    TOTEN  =      -166.91149571 eV

  energy without entropy =     -166.84523127  energy(sigma->0) =     -166.87836349


--------------------------------------------------------------------------------------------------------




--------------------------------------- Iteration      1(   6)  ---------------------------------------


    POTLOK:  cpu time      0.0648: real time      0.0655
    SETDIJ:  cpu time      0.0056: real time      0.0057
     EDDAV:  cpu time      3.0690: real time      3.0949
       DOS:  cpu time      0.0004: real time      0.0004
    CHARGE:  cpu time      0.1409: real time      0.1420
    MIXING:  cpu time      0.0020: real time      0.0334
    --------------------------------------------
      LOOP:  cpu time      3.2828: real time      3.3419

 eigenvalue-minimisations  :  1056
 total energy-change (2. order) : 0.8255690E+01  (-0.5506884E+01)
 number of electron     648.0000454 magnetization 
 augmentation part      173.2656272 magnetization 

 Broyden mixing:
  rms(total) = 0.38054E+01    rms(broyden)= 0.38054E+01
  rms(prec ) = 0.39112E+01
  weight for this iteration     100.00

 eigenvalues of (default mixing * dielectric matrix)
  average eigenvalue GAMMA=   1.8903
  1.8903

 Free energy of the ion-electron system (eV)
  ---------------------------------------------------
  alpha Z        PSCENC =      2675.77335074
  Ewald energy   TEWEN  =    -36680.42958573
  -Hartree energ DENC   =    -21234.25196543
  -exchange      EXHF   =         0.00000000
  -V(xc)+E(xc)   XCENC  =       680.47926850
  PAW double counting   =     56071.72319437   -54762.28172575
  entropy T*S    EENTRO =        -0.03722740
  eigenvalues    EBANDS =     -3388.83177483
  atomic energy  EATOM  =     56479.20065936
  Solvation  Ediel_sol  =         0.00000000
  ---------------------------------------------------
  free energy    TOTEN  =      -158.65580617 eV

  energy without entropy =     -158.61857877  energy(sigma->0) =     -158.63719247


--------------------------------------------------------------------------------------------------------




--------------------------------------- Iteration      1(   7)  ---------------------------------------


    POTLOK:  cpu time      0.0775: real time      0.0804
    SETDIJ:  cpu time      0.0059: real time      0.0060
     EDDAV:  cpu time      2.9086: real time      2.9300
       DOS:  cpu time      0.0004: real time      0.0004
    CHARGE:  cpu time      0.1363: real time      0.1371
    MIXING:  cpu time      0.0018: real time      0.0018
    --------------------------------------------
      LOOP:  cpu time      3.1306: real time      3.1557

 eigenvalue-minimisations  :   992
 total energy-change (2. order) : 0.1676781E-01  (-0.1662107E+01)
 number of electron     648.0000455 magnetization 
 augmentation part      172.8613656 magnetization 

 Broyden mixing:
  rms(total) = 0.16252E+01    rms(broyden)= 0.16252E+01
  rms(prec ) = 0.20041E+01
  weight for this iteration     100.00

 eigenvalues of (default mixing * dielectric matrix)
  average eigenvalue GAMMA=   1.4955
  0.7604  2.2305

 Free energy of the ion-electron system (eV)
  ---------------------------------------------------
  alpha Z        PSCENC =      2675.77335074
  Ewald energy   TEWEN  =    -36680.42958573
  -Hartree energ DENC   =    -21211.13859704
  -exchange      EXHF   =         0.00000000
  -V(xc)+E(xc)   XCENC  =       675.91875300
  PAW double counting   =     60959.20156875   -59672.73140439
  entropy T*S    EENTRO =        -0.05331796
  eigenvalues    EBANDS =     -3384.38046508
  atomic energy  EATOM  =     56479.20065936
  Solvation  Ediel_sol  =         0.00000000
  ---------------------------------------------------
  free energy    TOTEN  =      -158.63903835 eV

  energy without entropy =     -158.58572039  energy(sigma->0) =     -158.61237937


--------------------------------------------------------------------------------------------------------




--------------------------------------- Iteration      1(   8)  ---------------------------------------


    POTLOK:  cpu time      0.0619: real time      0.0624
    SETDIJ:  cpu time      0.0056: real time      0.0057
     EDDAV:  cpu time      3.2218: real time      3.2481
       DOS:  cpu time      0.0004: real time      0.0004
    CHARGE:  cpu time      0.1438: real time      0.1447
    MIXING:  cpu time      0.0025: real time      0.0025
    --------------------------------------------
      LOOP:  cpu time      3.4361: real time      3.4638

 eigenvalue-minimisations  :  1152
 total energy-change (2. order) :-0.4456042E+00  (-0.1163196E+01)
 number of electron     648.0000455 magnetization 
 augmentation part      173.2478898 magnetization 

 Broyden mixing:
  rms(total) = 0.88469E+00    rms(broyden)= 0.88467E+00
  rms(prec ) = 0.16341E+01
  weight for this iteration     100.00

 eigenvalues of (default mixing * dielectric matrix)
  average eigenvalue GAMMA=   1.2085
  2.3101  0.8895  0.4258

 Free energy of the ion-electron system (eV)
  ---------------------------------------------------
  alpha Z        PSCENC =      2675.77335074
  Ewald energy   TEWEN  =    -36680.42958573
  -Hartree energ DENC   =    -21147.51693465
  -exchange      EXHF   =         0.00000000
  -V(xc)+E(xc)   XCENC  =       674.84254091
  PAW double counting   =     64288.37883729   -63010.93441699
  entropy T*S    EENTRO =        -0.08669643
  eigenvalues    EBANDS =     -3438.31239701
  atomic energy  EATOM  =     56479.20065936
  Solvation  Ediel_sol  =         0.00000000
  ---------------------------------------------------
  free energy    TOTEN  =      -159.08464251 eV

  energy without entropy =     -158.99794608  energy(sigma->0) =     -159.04129430


--------------------------------------------------------------------------------------------------------




--------------------------------------- Iteration      1(   9)  ---------------------------------------


    POTLOK:  cpu time      0.0643: real time      0.0649
    SETDIJ:  cpu time      0.0059: real time      0.0060
     EDDAV:  cpu time      3.1917: real time      3.2173
       DOS:  cpu time      0.0004: real time      0.0004
    CHARGE:  cpu time      0.1471: real time      0.1480
    MIXING:  cpu time      0.0025: real time      0.0025
    --------------------------------------------
      LOOP:  cpu time      3.4120: real time      3.4390

 eigenvalue-minimisations  :  1120
 total energy-change (2. order) : 0.2147279E+01  (-0.7733121E+00)
 number of electron     648.0000455 magnetization 
 augmentation part      173.2678811 magnetization 

 Broyden mixing:
  rms(total) = 0.32866E+00    rms(broyden)= 0.32863E+00
  rms(prec ) = 0.55926E+00
  weight for this iteration     100.00

 eigenvalues of (default mixing * dielectric matrix)
  average eigenvalue GAMMA=   1.0754
  2.3785  0.9695  0.5774  0.3763

 Free energy of the ion-electron system (eV)
  ---------------------------------------------------
  alpha Z        PSCENC =      2675.77335074
  Ewald energy   TEWEN  =    -36680.42958573
  -Hartree energ DENC   =    -21144.27699944
  -exchange      EXHF   =         0.00000000
  -V(xc)+E(xc)   XCENC  =       674.85038477
  PAW double counting   =     64888.79927804   -63613.37165824
  entropy T*S    EENTRO =        -0.06276388
  eigenvalues    EBANDS =     -3437.42002923
  atomic energy  EATOM  =     56479.20065936
  Solvation  Ediel_sol  =         0.00000000
  ---------------------------------------------------
  free energy    TOTEN  =      -156.93736359 eV

  energy without entropy =     -156.87459972  energy(sigma->0) =     -156.90598165


--------------------------------------------------------------------------------------------------------




--------------------------------------- Iteration      1(  10)  ---------------------------------------


    POTLOK:  cpu time      0.0632: real time      0.0637
    SETDIJ:  cpu time      0.0057: real time      0.0057
     EDDAV:  cpu time      2.8508: real time      2.8737
       DOS:  cpu time      0.0004: real time      0.0004
    CHARGE:  cpu time      0.1379: real time      0.1387
    MIXING:  cpu time      0.0027: real time      0.0027
    --------------------------------------------
      LOOP:  cpu time      3.0607: real time      3.0849

 eigenvalue-minimisations  :   960
 total energy-change (2. order) : 0.1328259E+00  (-0.1597147E+00)
 number of electron     648.0000455 magnetization 
 augmentation part      173.2153088 magnetization 

 Broyden mixing:
  rms(total) = 0.19948E+00    rms(broyden)= 0.19947E+00
  rms(prec ) = 0.29919E+00
  weight for this iteration     100.00

 eigenvalues of (default mixing * dielectric matrix)
  average eigenvalue GAMMA=   0.9789
  2.4278  1.0269  0.6911  0.3744  0.3744

 Free energy of the ion-electron system (eV)
  ---------------------------------------------------
  alpha Z        PSCENC =      2675.77335074
  Ewald energy   TEWEN  =    -36680.42958573
  -Hartree energ DENC   =    -21147.43478834
  -exchange      EXHF   =         0.00000000
  -V(xc)+E(xc)   XCENC  =       674.90315661
  PAW double counting   =     65001.76909985   -63727.24899353
  entropy T*S    EENTRO =        -0.05511684
  eigenvalues    EBANDS =     -3433.28231981
  atomic energy  EATOM  =     56479.20065936
  Solvation  Ediel_sol  =         0.00000000
  ---------------------------------------------------
  free energy    TOTEN  =      -156.80453770 eV

  energy without entropy =     -156.74942086  energy(sigma->0) =     -156.77697928


--------------------------------------------------------------------------------------------------------




--------------------------------------- Iteration      1(  11)  ---------------------------------------


    POTLOK:  cpu time      0.0624: real time      0.0629
    SETDIJ:  cpu time      0.0060: real time      0.0061
     EDDAV:  cpu time      2.7913: real time      2.8184
       DOS:  cpu time      0.0004: real time      0.0004
    CHARGE:  cpu time      0.1375: real time      0.1384
    MIXING:  cpu time      0.0019: real time      0.0019
    --------------------------------------------
      LOOP:  cpu time      2.9995: real time      3.0281

 eigenvalue-minimisations  :   928
 total energy-change (2. order) : 0.2814409E-01  (-0.4270417E-01)
 number of electron     648.0000455 magnetization 
 augmentation part      173.1457567 magnetization 

 Broyden mixing:
  rms(total) = 0.11648E+00    rms(broyden)= 0.11648E+00
  rms(prec ) = 0.14535E+00
  weight for this iteration     100.00

 eigenvalues of (default mixing * dielectric matrix)
  average eigenvalue GAMMA=   0.9399
  2.4359  0.9127  0.7698  0.7698  0.4452  0.3063

 Free energy of the ion-electron system (eV)
  ---------------------------------------------------
  alpha Z        PSCENC =      2675.77335074
  Ewald energy   TEWEN  =    -36680.42958573
  -Hartree energ DENC   =    -21151.46225183
  -exchange      EXHF   =         0.00000000
  -V(xc)+E(xc)   XCENC  =       674.99161717
  PAW double counting   =     65037.28932580   -63763.53916966
  entropy T*S    EENTRO =        -0.05598341
  eigenvalues    EBANDS =     -3428.54435605
  atomic energy  EATOM  =     56479.20065936
  Solvation  Ediel_sol  =         0.00000000
  ---------------------------------------------------
  free energy    TOTEN  =      -156.77639361 eV

  energy without entropy =     -156.72041020  energy(sigma->0) =     -156.74840190


--------------------------------------------------------------------------------------------------------




--------------------------------------- Iteration      1(  12)  ---------------------------------------


    POTLOK:  cpu time      0.0670: real time      0.0675
    SETDIJ:  cpu time      0.0057: real time      0.0057
     EDDAV:  cpu time      2.7184: real time      2.7390
       DOS:  cpu time      0.0004: real time      0.0004
    CHARGE:  cpu time      0.1300: real time      0.1306
    MIXING:  cpu time      0.0018: real time      0.0018
    --------------------------------------------
      LOOP:  cpu time      2.9232: real time      2.9451

 eigenvalue-minimisations  :   928
 total energy-change (2. order) : 0.3772737E-02  (-0.7942832E-02)
 number of electron     648.0000455 magnetization 
 augmentation part      173.1213876 magnetization 

 Broyden mixing:
  rms(total) = 0.88900E-01    rms(broyden)= 0.88899E-01
  rms(prec ) = 0.11433E+00
  weight for this iteration     100.00

 eigenvalues of (default mixing * dielectric matrix)
  average eigenvalue GAMMA=   0.9442
  2.4335  1.0918  1.0918  0.7563  0.5459  0.3805  0.3099

 Free energy of the ion-electron system (eV)
  ---------------------------------------------------
  alpha Z        PSCENC =      2675.77335074
  Ewald energy   TEWEN  =    -36680.42958573
  -Hartree energ DENC   =    -21153.33549484
  -exchange      EXHF   =         0.00000000
  -V(xc)+E(xc)   XCENC  =       675.04120443
  PAW double counting   =     64992.55485386   -63719.02522160
  entropy T*S    EENTRO =        -0.05907235
  eigenvalues    EBANDS =     -3426.49331475
  atomic energy  EATOM  =     56479.20065936
  Solvation  Ediel_sol  =         0.00000000
  ---------------------------------------------------
  free energy    TOTEN  =      -156.77262087 eV

  energy without entropy =     -156.71354852  energy(sigma->0) =     -156.74308469


--------------------------------------------------------------------------------------------------------




--------------------------------------- Iteration      1(  13)  ---------------------------------------


    POTLOK:  cpu time      0.0755: real time      0.0761
    SETDIJ:  cpu time      0.0057: real time      0.0057
     EDDAV:  cpu time      2.7611: real time      2.7803
       DOS:  cpu time      0.0004: real time      0.0004
    CHARGE:  cpu time      0.1251: real time      0.1258
    MIXING:  cpu time      0.0020: real time      0.0020
    --------------------------------------------
      LOOP:  cpu time      2.9698: real time      2.9902

 eigenvalue-minimisations  :   960
 total energy-change (2. order) : 0.2534104E-02  (-0.3585333E-02)
 number of electron     648.0000455 magnetization 
 augmentation part      173.1091037 magnetization 

 Broyden mixing:
  rms(total) = 0.56212E-01    rms(broyden)= 0.56211E-01
  rms(prec ) = 0.74831E-01
  weight for this iteration     100.00

 eigenvalues of (default mixing * dielectric matrix)
  average eigenvalue GAMMA=   0.9897
  2.4234  1.4741  1.4741  0.7404  0.7404  0.4198  0.3459  0.2996

 Free energy of the ion-electron system (eV)
  ---------------------------------------------------
  alpha Z        PSCENC =      2675.77335074
  Ewald energy   TEWEN  =    -36680.42958573
  -Hartree energ DENC   =    -21154.32649008
  -exchange      EXHF   =         0.00000000
  -V(xc)+E(xc)   XCENC  =       675.05267988
  PAW double counting   =     64939.64101726   -63666.16823911
  entropy T*S    EENTRO =        -0.05820804
  eigenvalues    EBANDS =     -3425.45527104
  atomic energy  EATOM  =     56479.20065936
  Solvation  Ediel_sol  =         0.00000000
  ---------------------------------------------------
  free energy    TOTEN  =      -156.77008677 eV

  energy without entropy =     -156.71187872  energy(sigma->0) =     -156.74098274


--------------------------------------------------------------------------------------------------------




--------------------------------------- Iteration      1(  14)  ---------------------------------------


    POTLOK:  cpu time      0.0628: real time      0.0633
    SETDIJ:  cpu time      0.0057: real time      0.0058
     EDDAV:  cpu time      2.8110: real time      2.8320
       DOS:  cpu time      0.0004: real time      0.0004
    CHARGE:  cpu time      0.1419: real time      0.1429
    MIXING:  cpu time      0.0023: real time      0.0023
    --------------------------------------------
      LOOP:  cpu time      3.0242: real time      3.0467

 eigenvalue-minimisations  :   960
 total energy-change (2. order) : 0.1346459E-02  (-0.1388778E-02)
 number of electron     648.0000455 magnetization 
 augmentation part      173.1002289 magnetization 

 Broyden mixing:
  rms(total) = 0.30037E-01    rms(broyden)= 0.30036E-01
  rms(prec ) = 0.43067E-01
  weight for this iteration     100.00

 eigenvalues of (default mixing * dielectric matrix)
  average eigenvalue GAMMA=   0.9810
  2.3723  1.7440  1.5687  0.7905  0.7905  0.5234  0.4185  0.3310  0.2903

 Free energy of the ion-electron system (eV)
  ---------------------------------------------------
  alpha Z        PSCENC =      2675.77335074
  Ewald energy   TEWEN  =    -36680.42958573
  -Hartree energ DENC   =    -21155.33828346
  -exchange      EXHF   =         0.00000000
  -V(xc)+E(xc)   XCENC  =       675.05047491
  PAW double counting   =     64872.56013925   -63599.11393467
  entropy T*S    EENTRO =        -0.05721721
  eigenvalues    EBANDS =     -3424.41434350
  atomic energy  EATOM  =     56479.20065936
  Solvation  Ediel_sol  =         0.00000000
  ---------------------------------------------------
  free energy    TOTEN  =      -156.76874031 eV

  energy without entropy =     -156.71152310  energy(sigma->0) =     -156.74013170


--------------------------------------------------------------------------------------------------------




--------------------------------------- Iteration      1(  15)  ---------------------------------------


    POTLOK:  cpu time      0.0716: real time      0.0723
    SETDIJ:  cpu time      0.0060: real time      0.0061
     EDDAV:  cpu time      2.8330: real time      2.8600
       DOS:  cpu time      0.0004: real time      0.0004
    CHARGE:  cpu time      0.1406: real time      0.1418
    MIXING:  cpu time      0.0022: real time      0.0022
    --------------------------------------------
      LOOP:  cpu time      3.0537: real time      3.0828

 eigenvalue-minimisations  :   960
 total energy-change (2. order) : 0.7020459E-03  (-0.5135046E-03)
 number of electron     648.0000455 magnetization 
 augmentation part      173.0969197 magnetization 

 Broyden mixing:
  rms(total) = 0.13232E-01    rms(broyden)= 0.13232E-01
  rms(prec ) = 0.17723E-01
  weight for this iteration     100.00

 eigenvalues of (default mixing * dielectric matrix)
  average eigenvalue GAMMA=   0.9696
  2.3291  2.0135  1.4378  0.8611  0.8611  0.6801  0.4957  0.4010  0.3267  0.2902

 Free energy of the ion-electron system (eV)
  ---------------------------------------------------
  alpha Z        PSCENC =      2675.77335074
  Ewald energy   TEWEN  =    -36680.42958573
  -Hartree energ DENC   =    -21155.61929210
  -exchange      EXHF   =         0.00000000
  -V(xc)+E(xc)   XCENC  =       675.04987604
  PAW double counting   =     64839.05289844   -63565.60809013
  entropy T*S    EENTRO =        -0.05835474
  eigenvalues    EBANDS =     -3424.12950014
  atomic energy  EATOM  =     56479.20065936
  Solvation  Ediel_sol  =         0.00000000
  ---------------------------------------------------
  free energy    TOTEN  =      -156.76803826 eV

  energy without entropy =     -156.70968352  energy(sigma->0) =     -156.73886089


--------------------------------------------------------------------------------------------------------




--------------------------------------- Iteration      1(  16)  ---------------------------------------


    POTLOK:  cpu time      0.0634: real time      0.0638
    SETDIJ:  cpu time      0.0058: real time      0.0058
     EDDAV:  cpu time      2.8740: real time      2.9014
       DOS:  cpu time      0.0004: real time      0.0004
    CHARGE:  cpu time      0.1370: real time      0.1384
    MIXING:  cpu time      0.0026: real time      0.0026
    --------------------------------------------
      LOOP:  cpu time      3.0832: real time      3.1124

 eigenvalue-minimisations  :   960
 total energy-change (2. order) : 0.7163815E-04  (-0.1480953E-03)
 number of electron     648.0000455 magnetization 
 augmentation part      173.0982532 magnetization 

 Broyden mixing:
  rms(total) = 0.83503E-02    rms(broyden)= 0.83501E-02
  rms(prec ) = 0.99869E-02
  weight for this iteration     100.00

 eigenvalues of (default mixing * dielectric matrix)
  average eigenvalue GAMMA=   0.9672
  2.3262  1.9889  1.4598  1.0231  1.0231  0.7940  0.5640  0.4435  0.4011  0.3243
  0.2908

 Free energy of the ion-electron system (eV)
  ---------------------------------------------------
  alpha Z        PSCENC =      2675.77335074
  Ewald energy   TEWEN  =    -36680.42958573
  -Hartree energ DENC   =    -21155.55004807
  -exchange      EXHF   =         0.00000000
  -V(xc)+E(xc)   XCENC  =       675.04911563
  PAW double counting   =     64828.99279271   -63555.53500705
  entropy T*S    EENTRO =        -0.05763284
  eigenvalues    EBANDS =     -3424.21161137
  atomic energy  EATOM  =     56479.20065936
  Solvation  Ediel_sol  =         0.00000000
  ---------------------------------------------------
  free energy    TOTEN  =      -156.76796662 eV

  energy without entropy =     -156.71033378  energy(sigma->0) =     -156.73915020


--------------------------------------------------------------------------------------------------------




--------------------------------------- Iteration      1(  17)  ---------------------------------------


    POTLOK:  cpu time      0.0780: real time      0.0791
    SETDIJ:  cpu time      0.0060: real time      0.0061
     EDDAV:  cpu time      2.9088: real time      2.9367
       DOS:  cpu time      0.0004: real time      0.0004
    CHARGE:  cpu time      0.1364: real time      0.1372
    MIXING:  cpu time      0.0030: real time      0.0030
    --------------------------------------------
      LOOP:  cpu time      3.1325: real time      3.1624

 eigenvalue-minimisations  :   960
 total energy-change (2. order) : 0.1717224E-04  (-0.3518373E-04)
 number of electron     648.0000455 magnetization 
 augmentation part      173.0988645 magnetization 

 Broyden mixing:
  rms(total) = 0.50003E-02    rms(broyden)= 0.50003E-02
  rms(prec ) = 0.59039E-02
  weight for this iteration     100.00

 eigenvalues of (default mixing * dielectric matrix)
  average eigenvalue GAMMA=   0.9882
  2.3390  1.7532  1.7532  1.5620  0.9630  0.7425  0.7425  0.5446  0.4370  0.4048
  0.3257  0.2906

 Free energy of the ion-electron system (eV)
  ---------------------------------------------------
  alpha Z        PSCENC =      2675.77335074
  Ewald energy   TEWEN  =    -36680.42958573
  -Hartree energ DENC   =    -21155.51706994
  -exchange      EXHF   =         0.00000000
  -V(xc)+E(xc)   XCENC  =       675.04613050
  PAW double counting   =     64824.68772044   -63551.22347393
  entropy T*S    EENTRO =        -0.05794181
  eigenvalues    EBANDS =     -3424.24773907
  atomic energy  EATOM  =     56479.20065936
  Solvation  Ediel_sol  =         0.00000000
  ---------------------------------------------------
  free energy    TOTEN  =      -156.76794945 eV

  energy without entropy =     -156.71000764  energy(sigma->0) =     -156.73897855


--------------------------------------------------------------------------------------------------------




--------------------------------------- Iteration      1(  18)  ---------------------------------------


    POTLOK:  cpu time      0.0722: real time      0.0729
    SETDIJ:  cpu time      0.0061: real time      0.0061
     EDDAV:  cpu time      2.8059: real time      2.8303
       DOS:  cpu time      0.0004: real time      0.0004
    CHARGE:  cpu time      0.1303: real time      0.1309
    MIXING:  cpu time      0.0024: real time      0.0024
    --------------------------------------------
      LOOP:  cpu time      3.0173: real time      3.0431

 eigenvalue-minimisations  :   960
 total energy-change (2. order) :-0.1826629E-06  (-0.1127811E-04)
 number of electron     648.0000455 magnetization 
 augmentation part      173.0992667 magnetization 

 Broyden mixing:
  rms(total) = 0.27758E-02    rms(broyden)= 0.27758E-02
  rms(prec ) = 0.34586E-02
  weight for this iteration     100.00

 eigenvalues of (default mixing * dielectric matrix)
  average eigenvalue GAMMA=   1.0091
  2.3181  2.3181  1.6634  1.6634  0.9639  0.8122  0.8122  0.6294  0.2906  0.3256
  0.4914  0.4004  0.4291

 Free energy of the ion-electron system (eV)
  ---------------------------------------------------
  alpha Z        PSCENC =      2675.77335074
  Ewald energy   TEWEN  =    -36680.42958573
  -Hartree energ DENC   =    -21155.48862947
  -exchange      EXHF   =         0.00000000
  -V(xc)+E(xc)   XCENC  =       675.04394951
  PAW double counting   =     64821.58753076   -63548.11879329
  entropy T*S    EENTRO =        -0.05779692
  eigenvalues    EBANDS =     -3424.27863458
  atomic energy  EATOM  =     56479.20065936
  Solvation  Ediel_sol  =         0.00000000
  ---------------------------------------------------
  free energy    TOTEN  =      -156.76794963 eV

  energy without entropy =     -156.71015271  energy(sigma->0) =     -156.73905117


--------------------------------------------------------------------------------------------------------




--------------------------------------- Iteration      1(  19)  ---------------------------------------


    POTLOK:  cpu time      0.0637: real time      0.0643
    SETDIJ:  cpu time      0.0058: real time      0.0058
     EDDAV:  cpu time      2.6257: real time      2.6454
       DOS:  cpu time      0.0004: real time      0.0004
    CHARGE:  cpu time      0.1259: real time      0.1266
    MIXING:  cpu time      0.0024: real time      0.0024
    --------------------------------------------
      LOOP:  cpu time      2.8240: real time      2.8449

 eigenvalue-minimisations  :   896
 total energy-change (2. order) :-0.1666136E-05  (-0.4086308E-05)
 number of electron     648.0000455 magnetization 
 augmentation part      173.0992490 magnetization 

 Broyden mixing:
  rms(total) = 0.12619E-02    rms(broyden)= 0.12619E-02
  rms(prec ) = 0.15689E-02
  weight for this iteration     100.00

 eigenvalues of (default mixing * dielectric matrix)
  average eigenvalue GAMMA=   1.0151
  2.4478  2.4478  1.6738  1.6738  0.9403  0.9403  0.8717  0.7472  0.5645  0.2906
  0.3255  0.4731  0.4072  0.4072

 Free energy of the ion-electron system (eV)
  ---------------------------------------------------
  alpha Z        PSCENC =      2675.77335074
  Ewald energy   TEWEN  =    -36680.42958573
  -Hartree energ DENC   =    -21155.49885246
  -exchange      EXHF   =         0.00000000
  -V(xc)+E(xc)   XCENC  =       675.04304556
  PAW double counting   =     64818.87621790   -63545.40560832
  entropy T*S    EENTRO =        -0.05788864
  eigenvalues    EBANDS =     -3424.26928971
  atomic energy  EATOM  =     56479.20065936
  Solvation  Ediel_sol  =         0.00000000
  ---------------------------------------------------
  free energy    TOTEN  =      -156.76795130 eV

  energy without entropy =     -156.71006266  energy(sigma->0) =     -156.73900698


--------------------------------------------------------------------------------------------------------




--------------------------------------- Iteration      1(  20)  ---------------------------------------


    POTLOK:  cpu time      0.0632: real time      0.0637
    SETDIJ:  cpu time      0.0058: real time      0.0058
     EDDAV:  cpu time      2.3430: real time      2.3592
       DOS:  cpu time      0.0004: real time      0.0004
    CHARGE:  cpu time      0.1308: real time      0.1315
    MIXING:  cpu time      0.0020: real time      0.0020
    --------------------------------------------
      LOOP:  cpu time      2.5453: real time      2.5627

 eigenvalue-minimisations  :   768
[...]
    FORHAR:  cpu time      0.0303: real time      0.0304
    MIXING:  cpu time      0.0017: real time      0.0017
    OFIELD:  cpu time      0.0000: real time      0.0000

  FORCE on cell =-STRESS in cart. coord.  units (eV):
  Direction    XX          YY          ZZ          XY          YZ          ZX
  --------------------------------------------------------------------------------------
  Alpha Z  2675.77335  2675.77335  2675.77335
  Ewald  -16672.88684-11786.67809 -8221.11546  3527.91938  -162.19821     0.00000
  Hartree  3030.30442  7463.48496 10661.71767  3251.85385  -139.55771     0.29324
  E(xc)   -2993.56595 -2992.53447 -2991.81869     0.47524    -0.02410     0.00933
  Local    5509.00372 -3714.99650-10459.49557 -6734.80004   298.81351     0.36367
  n-local  -336.30295  -378.33811  -394.94029   -18.10811     1.31865    -0.20174
  augment   525.90099   526.31811   525.71427     1.62200     0.35470     0.13682
  Kinetic  8295.00337  8256.58142  8242.45424   -23.56494     0.91200    -0.86742
  Fock        0.00000     0.00000     0.00000     0.00000     0.00000     0.00000
  -------------------------------------------------------------------------------------
  Total      33.23011    49.61067    38.28951     5.39737    -0.38116    -0.26611
  in kB      28.98705    43.27602    33.40043     4.70820    -0.33249    -0.23213
  external pressure =       35.22 kB  Pullay stress =        0.00 kB


 VOLUME and BASIS-vectors are now :
 -----------------------------------------------------------------------------
  energy-cutoff  :      400.00
  volume of cell :     1836.70
      direct lattice vectors                 reciprocal lattice vectors
     6.253257149-10.830959095  0.000000000     0.079958330 -0.046163963  0.000000000
     6.253257149 10.830959095  0.000000000     0.079958330  0.046163963  0.000000000
     0.000000000  0.000000000 13.559234820     0.000000000  0.000000000  0.073750474

  length of vectors
    12.506514299 12.506514299 13.559234820     0.092327927  0.092327927  0.073750474


 FORCES acting on ions
    electron-ion (+dipol)            ewald-force                    non-local-force                 convergence-correction
 -----------------------------------------------------------------------------------------------
   0.143E+03 -.518E+02 -.113E+02   -.144E+03 0.517E+02 0.114E+02   0.598E+00 0.164E+00 -.990E-01   0.246E-03 -.474E-03 -.617E-03
   0.315E+03 -.200E+03 0.739E+02   -.314E+03 0.200E+03 -.731E+02   -.182E+01 0.618E+00 -.117E+01   -.269E-02 0.193E-02 0.114E-02
   0.124E+03 -.632E+02 -.320E+02   -.124E+03 0.633E+02 0.318E+02   0.429E+00 -.745E-01 0.240E+00   0.739E-03 -.135E-02 -.111E-02
   0.335E+03 -.212E+03 -.304E+02   -.334E+03 0.212E+03 0.300E+02   -.202E+01 0.679E+00 0.847E+00   -.143E-02 0.179E-02 -.632E-03
   0.697E+02 -.633E+02 -.546E+01   -.700E+02 0.633E+02 0.569E+01   0.254E+00 -.770E-01 -.201E+00   0.127E-03 -.631E-03 0.318E-03
   0.281E+03 -.211E+03 -.683E+01   -.280E+03 0.212E+03 0.749E+01   -.173E+01 0.194E+00 -.106E+01   0.216E-02 -.357E-03 -.110E-02
   0.889E+02 -.518E+02 0.485E+02   -.902E+02 0.517E+02 -.488E+02   0.107E+01 -.929E-02 0.275E+00   -.131E-02 -.107E-03 0.699E-03
   0.261E+03 -.200E+03 -.358E+02   -.260E+03 0.200E+03 0.356E+02   -.230E+01 0.871E-01 0.648E+00   0.185E-02 -.123E-02 0.750E-03
   -.437E+01 -.989E+02 -.478E+02   0.402E+01 0.991E+02 0.485E+02   0.200E+00 -.872E-01 -.659E+00   0.961E-03 0.101E-02 -.585E-04
   0.224E+03 -.164E+03 0.645E+02   -.223E+03 0.164E+03 -.643E+02   -.226E+01 0.746E+00 -.665E+00   0.263E-02 -.215E-02 0.234E-02
   -.123E+03 -.306E+02 -.997E+02   0.122E+03 0.309E+02 0.998E+02   0.167E+01 -.962E+00 0.440E+00   0.145E-02 0.168E-02 -.238E-02
   0.222E+03 -.165E+03 -.321E+02   -.220E+03 0.165E+03 0.318E+02   -.238E+01 0.491E+00 0.782E+00   0.159E-02 -.152E-02 0.112E-02
   -.149E+03 0.163E+02 0.626E+02   0.149E+03 -.159E+02 -.624E+02   0.136E+01 -.106E+01 -.779E+00   0.875E-03 0.357E-04 0.846E-03
   0.194E+03 -.119E+03 -.566E+01   -.193E+03 0.119E+03 0.567E+01   -.167E+01 0.153E+01 -.482E+00   0.101E-02 0.603E-03 -.238E-02
   -.307E+02 -.521E+02 0.852E+02   0.310E+02 0.523E+02 -.859E+02   -.462E+00 -.651E-01 0.675E+00   0.158E-03 0.228E-03 0.132E-02
   0.196E+03 -.118E+03 -.267E+02   -.196E+03 0.117E+03 0.269E+02   -.159E+01 0.128E+01 0.367E+00   0.194E-02 -.210E-03 -.155E-02
   -.497E+02 0.987E+02 0.171E+02   0.487E+02 -.979E+02 -.168E+02   0.205E+01 -.128E+01 -.709E+00   0.251E-02 -.330E-02 0.147E-03
   0.331E+03 -.138E+03 0.558E+02   -.331E+03 0.136E+03 -.555E+02   -.108E+01 0.149E+01 -.813E+00   0.140E-02 -.881E-06 0.456E-03
   -.495E+02 0.122E+03 -.605E+02   0.487E+02 -.121E+03 0.600E+02   0.191E+01 -.128E+01 0.929E+00   0.969E-03 -.221E-02 -.160E-02
   0.331E+03 -.135E+03 -.234E+02   -.331E+03 0.134E+03 0.230E+02   -.115E+01 0.133E+01 0.843E+00   0.252E-02 -.165E-02 -.195E-03
   -.492E+02 0.122E+03 0.416E+02   0.487E+02 -.121E+03 -.410E+02   0.162E+01 -.167E+01 -.102E+01   0.901E-03 -.640E-03 0.462E-03
   0.331E+03 -.135E+03 0.426E+01   -.331E+03 0.134E+03 -.406E+01   -.107E+01 0.157E+01 -.660E+00   -.239E-03 -.189E-02 -.402E-03
   -.495E+02 0.990E+02 0.200E+01   0.487E+02 -.979E+02 -.210E+01   0.183E+01 -.154E+01 0.585E+00   0.197E-02 -.174E-02 0.144E-02
   0.331E+03 -.138E+03 -.366E+02   -.331E+03 0.136E+03 0.366E+02   -.155E+01 0.150E+01 0.606E+00   0.134E-03 -.497E-03 -.240E-03
   -.147E+03 0.377E+03 0.727E+02   0.147E+03 -.377E+03 -.714E+02   0.579E-01 -.660E+00 -.204E+01   -.390E-03 -.410E-02 -.123E-02
   -.300E+03 0.817E+02 0.974E+02   0.300E+03 -.825E+02 -.981E+02   0.136E+01 0.141E+01 -.141E-01   -.215E-02 -.282E-02 0.157E-02
   -.145E+03 0.376E+03 -.105E+03   0.145E+03 -.376E+03 0.104E+03   -.225E-02 -.102E+01 0.192E+01   -.156E-02 -.148E-02 -.348E-02
   -.181E+03 0.150E+03 0.502E+02   0.182E+03 -.151E+03 -.502E+02   -.435E+00 0.528E+00 0.448E-01   -.457E-03 -.237E-02 0.101E-02
   -.172E+03 0.329E+03 0.673E+02   0.172E+03 -.329E+03 -.665E+02   0.294E+00 -.143E+01 -.163E+01   -.124E-02 -.479E-03 0.183E-02
   -.208E+03 0.104E+03 -.875E+02   0.209E+03 -.104E+03 0.876E+02   -.571E+00 0.159E+00 -.218E+00   0.125E-02 -.629E-03 -.108E-02
   -.174E+03 0.331E+03 -.349E+02   0.174E+03 -.331E+03 0.340E+02   0.129E+00 -.156E+01 0.173E+01   -.627E-03 -.361E-02 0.234E-02
   -.327E+03 0.345E+02 -.601E+02   0.327E+03 -.357E+02 0.607E+02   0.102E+01 0.176E+01 0.897E-01   0.718E-03 -.150E-03 -.535E-03
   -.403E+03 0.941E+02 0.275E+02   0.404E+03 -.937E+02 -.258E+02   0.792E+00 -.115E+01 -.198E+01   -.143E-02 0.119E-02 0.225E-02
   -.403E+03 0.928E+02 0.173E+03   0.404E+03 -.937E+02 -.172E+03   0.702E-01 0.695E-01 -.145E+01   0.226E-02 0.415E-02 0.163E-02
   -.403E+03 -.415E+02 -.175E+03   0.404E+03 0.427E+02 0.174E+03   0.120E+00 -.253E+00 0.187E+01   0.129E-02 -.121E-02 -.215E-03
   -.404E+03 -.427E+02 -.253E+02   0.404E+03 0.427E+02 0.241E+02   0.109E+01 0.764E+00 0.154E+01   0.200E-02 0.304E-02 0.107E-02
   -.199E+03 -.192E+02 -.135E+02   0.202E+03 0.214E+02 0.150E+02   -.231E+01 -.145E+01 -.158E+01   0.525E-03 -.111E-03 -.169E-02
   -.201E+03 -.205E+02 -.888E+02   0.202E+03 0.214E+02 0.900E+02   -.692E+00 -.587E+00 -.130E+01   0.254E-02 0.141E-02 -.786E-03
   -.201E+03 0.464E+02 0.870E+02   0.202E+03 -.468E+02 -.891E+02   -.832E+00 0.365E+00 0.199E+01   -.160E-02 0.108E-02 -.593E-03
   -.199E+03 0.455E+02 0.144E+02   0.202E+03 -.468E+02 -.158E+02   -.243E+01 0.106E+01 0.173E+01   0.148E-02 0.210E-03 -.307E-03
   -.162E+03 0.196E+02 -.324E+02   0.163E+03 -.178E+02 0.332E+02   -.106E+01 -.150E+01 -.164E+00   0.313E-03 0.182E-02 0.608E-03
   -.867E+02 0.163E+03 -.189E+02   0.870E+02 -.165E+03 0.199E+02   -.243E+00 0.169E+01 -.192E+00   0.769E-03 -.159E-02 0.175E-02
   -.104E+03 0.521E+02 -.409E+02   0.104E+03 -.519E+02 0.409E+02   -.745E+00 -.879E+00 -.429E+00   0.172E-03 0.110E-02 -.707E-03
   -.866E+02 0.163E+03 0.355E+02   0.858E+02 -.165E+03 -.362E+02   0.746E+00 0.149E+01 -.641E-01   0.765E-03 -.123E-02 -.212E-03
   -.904E+02 0.758E+02 0.222E+02   0.908E+02 -.753E+02 -.222E+02   -.944E+00 -.690E+00 0.107E+00   -.774E-04 0.398E-03 0.654E-03
   -.722E+02 0.186E+03 -.540E+02   0.723E+02 -.188E+03 0.549E+02   0.115E+00 0.166E+01 -.113E+00   -.343E-03 -.209E-02 -.195E-02
   -.148E+03 0.433E+02 0.508E+02   0.150E+03 -.412E+02 -.520E+02   -.154E+01 -.173E+01 0.637E+00   0.225E-02 0.847E-03 0.172E-02
   -.734E+02 0.187E+03 0.386E+02   0.735E+02 -.189E+03 -.386E+02   0.159E+00 0.145E+01 -.403E+00   -.953E-04 -.769E-03 -.305E-03
   0.164E+03 -.673E+02 -.197E+02   -.165E+03 0.682E+02 0.212E+02   0.978E+00 -.779E+00 -.123E+01   -.249E-03 0.139E-02 -.159E-02
   -.222E+02 0.481E+02 0.856E+00   0.244E+02 -.490E+02 0.186E+01   -.161E+01 0.606E+00 -.197E+01   -.179E-02 -.203E-02 0.182E-02
   0.164E+03 -.664E+02 0.383E+01   -.165E+03 0.668E+02 -.494E+01   0.979E+00 -.282E+00 0.883E+00   -.373E-03 0.454E-03 -.242E-02
   -.219E+02 0.597E+02 0.215E+02   0.244E+02 -.606E+02 -.234E+02   -.190E+01 0.559E+00 0.122E+01   -.122E-02 -.807E-03 -.229E-03
   0.164E+03 -.659E+02 -.133E+02   -.165E+03 0.668E+02 0.144E+02   0.650E+00 -.792E+00 -.959E+00   -.331E-03 -.107E-03 0.287E-02
   -.221E+02 0.594E+02 -.312E+02   0.244E+02 -.606E+02 0.329E+02   -.173E+01 0.755E+00 -.822E+00   0.146E-05 0.136E-02 -.190E-02
   0.164E+03 -.674E+02 0.292E+02   -.165E+03 0.682E+02 -.307E+02   0.989E+00 -.585E+00 0.120E+01   -.194E-02 -.115E-03 0.202E-02
   -.221E+02 0.478E+02 0.930E+01   0.244E+02 -.490E+02 -.113E+02   -.178E+01 0.825E+00 0.108E+01   -.891E-03 0.108E-02 0.385E-03
   0.958E+02 -.570E+02 -.143E+02   -.979E+02 0.586E+02 0.163E+02   0.135E+01 -.127E+01 -.957E+00   -.130E-02 -.173E-02 0.121E-02
   -.161E+02 -.255E+02 0.395E+02   0.155E+02 0.261E+02 -.401E+02   0.731E+00 -.521E+00 0.955E+00   0.142E-03 0.565E-03 -.767E-04
   0.949E+02 -.583E+02 -.159E+01   -.967E+02 0.593E+02 -.719E-01   0.108E+01 -.760E+00 0.628E+00   0.394E-03 0.464E-03 -.924E-03
   -.725E+02 0.635E+01 0.317E+02   0.746E+02 -.796E+01 -.341E+02   -.136E+01 0.127E+01 0.128E+01   -.108E-02 -.547E-03 0.233E-02
   0.109E+03 -.824E+02 -.178E+02   -.110E+03 0.827E+02 0.188E+02   0.135E+01 0.310E+00 -.999E+00   0.156E-03 0.944E-03 -.855E-03
   -.588E+02 -.170E+02 -.503E+02   0.611E+02 0.154E+02 0.528E+02   -.176E+01 0.132E+01 -.167E+01   -.367E-03 -.280E-03 0.237E-03
   0.110E+03 -.814E+02 0.335E+02   -.111E+03 0.820E+02 -.351E+02   0.123E+01 -.221E+00 0.136E+01   -.986E-03 -.253E-02 0.107E-03
   -.295E+01 -.493E+02 -.211E+02   0.201E+01 0.495E+02 0.213E+02   0.677E+00 -.455E+00 -.306E+00   -.794E-03 0.762E-03 -.149E-02
   0.128E+03 -.994E+02 -.198E+02   -.130E+03 0.100E+03 0.207E+02   0.127E+01 -.504E+00 -.541E+00   0.916E-03 0.881E-03 0.102E-02
   0.449E+02 -.256E+02 0.210E+02   -.451E+02 0.258E+02 -.215E+02   0.279E+00 -.627E+00 0.887E+00   0.222E-03 0.215E-02 -.146E-03
   0.139E+03 -.105E+03 -.211E+01   -.140E+03 0.106E+03 0.841E+00   0.104E+01 -.954E+00 0.841E+00   -.809E-03 -.388E-03 -.742E-04
   0.347E+02 -.307E+02 0.441E+00   -.350E+02 0.316E+02 -.602E-01   0.602E+00 -.109E+01 -.821E+00   -.155E-03 0.266E-02 -.162E-02
   0.166E+03 -.105E+03 -.172E+02   -.167E+03 0.106E+03 0.179E+02   0.316E+00 -.729E+00 -.732E+00   -.318E-03 -.620E-03 0.330E-03
   0.609E+02 -.312E+02 -.189E+02   -.620E+02 0.316E+02 0.188E+02   0.873E+00 -.258E+00 0.395E+00   -.287E-02 0.117E-02 -.192E-02
   0.156E+03 -.100E+03 0.394E+02   -.157E+03 0.100E+03 -.395E+02   0.231E+00 0.513E-01 0.390E+00   0.179E-02 0.344E-02 -.373E-03
   0.716E+02 -.255E+02 -.317E+01   -.721E+02 0.258E+02 0.278E+01   0.610E+00 -.473E+00 -.748E-01   -.197E-02 0.531E-03 0.697E-03
 -----------------------------------------------------------------------------------------------
   0.882E+01 0.155E+01 0.974E+00   0.148E-11 0.153E-11 0.114E-12   -.883E+01 -.154E+01 -.963E+00   0.130E-01 -.114E-01 0.152E-02
 
 
 POSITION                                       TOTAL-FORCE (eV/Angst)
 -----------------------------------------------------------------------------------
      2.08442     -1.20344      3.39133        -0.093036      0.018043     -0.013832
      2.08442      1.20344      0.00152        -1.066321      0.626929     -0.349727
      2.08442     -1.20344      5.94420        -0.035943      0.025202     -0.009353
      2.08442      1.20344      2.55439        -1.022014      0.694787      0.410286
      2.08442     -1.20344     10.17095        -0.113936     -0.096503      0.032634
      2.08442      1.20344      6.78114        -0.969778      0.938524     -0.390754
      2.08442     -1.20344     12.72382        -0.147015     -0.116608     -0.031244
      2.08442      1.20344      9.33401        -0.964950      0.858480      0.474178
      4.16884      2.40688      3.39133        -0.144214      0.061080     -0.000646
      4.16884      4.81376      0.00152        -0.940927      0.794607     -0.420607
      4.16884      2.40688      5.94420         1.182209     -0.676478      0.576481
      4.16884      4.81376      2.55439        -0.920051      0.815615      0.421115
      4.16884      2.40688     10.17095         1.208744     -0.690590     -0.533259
      4.16884      4.81376      6.78114        -1.138680      0.662476     -0.474240
      4.16884      2.40688     12.72382        -0.109574      0.150458     -0.047104
      4.16884      4.81376      9.33401        -1.160115      0.609386      0.548919
      6.25326      6.01720      3.39133         1.019102     -0.563218     -0.452093
      6.25326      8.42408      0.00152        -1.192526      0.377752     -0.515005
      6.25326      6.01720      5.94420         1.072846     -0.528882      0.399151
      6.25326      8.42408      2.55439        -1.158621      0.320364      0.403890
      6.25326      6.01720     10.17095         1.088784     -0.480657     -0.416688
      6.25326      8.42408      6.78114        -1.221378      0.359526     -0.456656
      6.25326      6.01720     12.72382         1.070319     -0.489391      0.486643
      6.25326      8.42408      9.33401        -1.224033      0.396814      0.606577
      4.16884     -4.81376      3.39133        -0.045690     -1.381807     -0.710838
      4.16884     -2.40688      0.00152         1.285953      0.636671     -0.719244
      4.16884     -4.81376      5.94420        -0.067131     -1.392188      0.729142
      4.16884     -2.40688      2.55439        -0.169395     -0.035908      0.085345
      4.16884     -4.81376     10.17095        -0.169825     -1.180456     -0.829324
      4.16884     -2.40688      6.78114        -0.120043     -0.100519     -0.067096
      4.16884     -4.81376     12.72382        -0.140783     -1.233967      0.785024
      4.16884     -2.40688      9.33401         1.281045      0.559374      0.702799
      6.25326     -1.20344      3.39133         1.277936     -0.699672     -0.302392
      6.25326      1.20344      0.00152         1.272975     -0.778582     -0.838260
      6.25326     -1.20344      5.94420         1.334528      0.934564      0.779278
      6.25326      1.20344      2.55439         1.241863      0.828263      0.399707
      6.25326     -1.20344     10.17095         0.503001      0.674309     -0.157038
      6.25326      1.20344      6.78114         0.500576      0.240618     -0.163801
      6.25326     -1.20344     12.72382         0.119654     -0.029170     -0.175780
      6.25326      1.20344      9.33401         0.772753     -0.317448      0.302437
      8.33768      2.40688      3.39133         0.376646      0.279496      0.727610
      8.33768      4.81376      0.00152         0.057404     -0.351373      0.775419
      8.33768      2.40688      5.94420         0.075541     -0.672858     -0.424605
      8.33768      4.81376      2.55439        -0.009821     -0.223152     -0.728550
      8.33768      2.40688     10.17095        -0.501528     -0.209621      0.123444
      8.33768      4.81376      6.78114         0.218480     -0.240780      0.725028
      8.33768      2.40688     12.72382         0.235436      0.321646     -0.526361
      8.33768      4.81376      9.33401         0.315316     -0.340152     -0.440712
      6.25326     -8.42408      3.39133        -0.703514      0.097694      0.234552
      6.25326     -6.01720      0.00152         0.520381     -0.304274      0.742546
      6.25326     -8.42408      5.94420        -0.494260      0.151094     -0.223258
      6.25326     -6.01720      2.55439         0.544032     -0.290414     -0.718471
      6.25326     -8.42408     10.17095        -0.472016      0.114933      0.145226
      6.25326     -6.01720      6.78114         0.520383     -0.391231      0.887956
      6.25326     -8.42408     12.72382        -0.539538      0.219448     -0.241068
      6.25326     -6.01720      9.33401         0.429586     -0.326170     -0.942856
      8.33768     -4.81376      3.39133        -0.701863      0.281308      1.115535
      8.33768     -2.40688      0.00152         0.122852      0.103631      0.411740
      8.33768     -4.81376      5.94420        -0.654381      0.218151     -1.036382
      8.33768     -2.40688      2.55439         0.672997     -0.338798     -1.135939
      8.33768     -4.81376     10.17095        -0.293884      0.523864     -0.010002
      8.33768     -2.40688      6.78114         0.520008     -0.252185      0.848824
      8.33768     -4.81376     12.72382        -0.561364      0.358925     -0.232148
      8.33768     -2.40688      9.33401        -0.263128     -0.251337     -0.100605
     10.42210     -1.20344      3.39133        -0.432406      0.329181      0.390620
     10.42210      1.20344      0.00152         0.053724     -0.404684      0.389004
     10.42210     -1.20344      5.94420        -0.376868      0.389134     -0.426880
     10.42210      1.20344      2.55439         0.266625     -0.095805     -0.441983
     10.42210     -1.20344     10.17095        -0.340929      0.346448     -0.064400
     10.42210      1.20344      6.78114        -0.232731      0.179165      0.264795
     10.42210     -1.20344     12.72382        -0.398501      0.101575      0.299272
     10.42210      1.20344      9.33401         0.151013     -0.114658     -0.455975
 -----------------------------------------------------------------------------------
    total drift:                                0.000641     -0.000104      0.012492


--------------------------------------------------------------------------------------------------------



  FREE ENERGIE OF THE ION-ELECTRON SYSTEM (eV)
  ---------------------------------------------------
  free  energy   TOTEN  =      -156.76795297 eV

  energy  without entropy=     -156.71009723  energy(sigma->0) =     -156.73902510
 


--------------------------------------------------------------------------------------------------------


    POTLOK:  cpu time      0.0694: real time      0.0697


--------------------------------------------------------------------------------------------------------


     LOOP+:  cpu time     65.5082: real time     66.3865
    4ORBIT:  cpu time      0.0000: real time      0.0164

 total amount of memory used by VASP MPI-rank0   130741. kBytes
=======================================================================

   base      :      30000. kBytes
   nonl-proj :      48153. kBytes
   fftplans  :       8559. kBytes
   grid      :      35755. kBytes
   one-center:       1119. kBytes
   wavefun   :       7155. kBytes
 
  
  
 General timing and accounting informations for this job:
 ========================================================
  
                  Total CPU time used (sec):       67.799
                            User time (sec):       66.619
                          System time (sec):        1.180
                         Elapsed time (sec):       73.995
  
                   Maximum memory used (kb):      303976.
                   Average memory used (kb):          N/A
  
                          Minor page faults:        94937
                          Major page faults:          559
                 Voluntary context switches:         7319
