<?xml version="1.0" encoding="ISO-8859-1"?>
<modeling>
 <generator>
  <i name="program" type="string">vasp </i>
  <i name="version" type="string">6.4.2  </i>
  <i name="subversion" type="string">20Jul23 (build Sep 17 2025 15:35:10) complex                          parallel </i>
  <i name="platform" type="string">LinuxIFC </i>
  <i name="date" type="string">2025 10 09 </i>
  <i name="time" type="string">12:44:01 </i>
 </generator>
 <incar>
  <i type="int" name="ISTART">     0</i>
  <i type="string" name="PREC">Accurate</i>
  <i type="int" name="ICHARG">     2</i>
  <i type="int" name="NELM">   100</i>
  <i name="EDIFF">      0.00000100</i>
  <i name="ENCUT">    400.00000000</i>
  <i type="logical" name="LREAL"> F  </i>
  <i type="int" name="ISMEAR">     0</i>
  <i name="SIGMA">      0.05000000</i>
  <i type="logical" name="LWAVE"> F  </i>
  <i type="logical" name="LCHARG"> F  </i>
  <i type="string" name="GGA">PS</i>
 </incar>
 <primitive_cell>
  <structure name="primitive_cell" >
   <crystal>
    <varray name="basis" >
     <v>       2.08441905      -3.61031970       0.00000000 </v>
     <v>       2.08441905       3.61031970       0.00000000 </v>
     <v>       0.00000000       0.00000000       6.77961741 </v>
    </varray>
    <i name="volume">    102.03892544 </i>
    <varray name="rec_basis" >
     <v>       0.23987499      -0.13849189       0.00000000 </v>
     <v>       0.23987499       0.13849189       0.00000000 </v>
     <v>       0.00000000       0.00000000       0.14750095 </v>
    </varray>
   </crystal>
   <varray name="positions" >
    <v>       0.66666667       0.33333333       0.50022437 </v>
    <v>       0.33333333       0.66666667       0.00022437 </v>
    <v>       0.66666667       0.33333333       0.87677563 </v>
    <v>       0.33333333       0.66666667       0.37677563 </v>
   </varray>
  </structure>
  <varray name="primitive_index" >
   <v type="int" >        1 </v>
   <v type="int" >       24 </v>
   <v type="int" >       50 </v>
   <v type="int" >       51 </v>
  </varray>
 </primitive_cell>
 <kpoints>
  <generation param="Gamma">
   <v type="int" name="divisions">       1        1        1 </v>
   <v name="usershift">      0.00000000       0.00000000       0.00000000 </v>
   <v name="genvec1">      1.00000000       0.00000000       0.00000000 </v>
   <v name="genvec2">      0.00000000       1.00000000       0.00000000 </v>
   <v name="genvec3">      0.00000000       0.00000000       1.00000000 </v>
   <v name="shift">      0.00000000       0.00000000       0.00000000 </v>
  </generation>
  <varray name="kpointlist" >
   <v>       0.00000000       0.00000000       0.00000000 </v>
  </varray>
  <varray name="weights" >
   <v>       1.00000000 </v>
  </varray>
 </kpoints>
 <parameters>
  <separator name="general" >
   <i type="string" name="SYSTEM">unknown system</i>
   <i type="logical" name="LCOMPAT"> F  </i>
  </separator>
  <separator name="electronic" >
   <i type="string" name="PREC">accura</i>
   <i name="ENMAX">    400.00000000</i>
   <i name="ENAUG">    456.10600000</i>
   <i name="EDIFF">      0.00000100</i>
   <i type="int" name="IALGO">    38</i>
   <i type="int" name="IWAVPR">    10</i>
   <i type="int" name="NBANDS">   416</i>
   <i type="int" name="NBANDSLOW">    -1</i>
   <i type="int" name="NBANDSHIGH">    -1</i>
   <i name="NELECT">    648.00000000</i>
   <i type="int" name="TURBO">     0</i>
   <i type="int" name="IRESTART">     0</i>
   <i type="int" name="NREBOOT">     0</i>
   <i type="int" name="NMIN">     0</i>
   <i name="EREF">      0.00000000</i>
   <separator name="electronic smearing" >
    <i type="int" name="ISMEAR">     0</i>
    <i name="SIGMA">      0.05000000</i>
    <i name="KSPACING">      0.50000000</i>
    <i type="logical" name="KGAMMA"> T  </i>
    <i type="logical" name="KBLOWUP"> T  </i>
   </separator>
   <separator name="electronic projectors" >
    <i type="logical" name="LREAL"> F  </i>
    <v name="ROPT">      0.00000000      0.00000000</v>
    <i type="int" name="LMAXPAW">  -100</i>
    <i type="int" name="LMAXMIX">     2</i>
    <i type="logical" name="NLSPLINE"> F  </i>
   </separator>
   <separator name="electronic startup" >
    <i type="int" name="ISTART">     0</i>
    <i type="int" name="ICHARG">     2</i>
    <i type="int" name="INIWAV">     1</i>
   </separator>
   <separator name="electronic spin" >
    <i type="int" name="ISPIN">     1</i>
    <i type="logical" name="LNONCOLLINEAR"> F  </i>
    <v name="MAGMOM">      1.00000000      1.00000000      1.00000000      1.00000000      1.00000000      1.00000000      1.00000000      1.00000000      1.00000000      1.00000000      1.00000000      1.00000000      1.00000000      1.00000000      1.00000000      1.00000000      1.00000000      1.00000000      1.00000000      1.00000000
      1.00000000      1.00000000      1.00000000      1.00000000      1.00000000      1.00000000      1.00000000      1.00000000      1.00000000      1.00000000      1.00000000      1.00000000      1.00000000      1.00000000      1.00000000      1.00000000      1.00000000      1.00000000      1.00000000      1.00000000
      1.00000000      1.00000000      1.00000000      1.00000000      1.00000000      1.00000000      1.00000000      1.00000000      1.00000000      1.00000000      1.00000000      1.00000000      1.00000000      1.00000000      1.00000000      1.00000000      1.00000000      1.00000000      1.00000000      1.00000000
      1.00000000      1.00000000      1.00000000      1.00000000      1.00000000      1.00000000      1.00000000      1.00000000      1.00000000      1.00000000      1.00000000      1.00000000</v>
    <i name="NUPDOWN">     -1.00000000</i>
    <i type="logical" name="LSORBIT"> F  </i>
    <v name="SAXIS">      0.00000000      0.00000000      1.00000000</v>
    <i type="logical" name="LSPIRAL"> F  </i>
    <v name="QSPIRAL">      0.00000000      0.00000000      0.00000000</v>
    <i type="logical" name="LZEROZ"> F  </i>
   </separator>
   <separator name="electronic exchange-correlation" >
    <i type="logical" name="LASPH"> F  </i>
    <i type="logical" name="LMETAGGA"> F  </i>
   </separator>
   <separator name="electronic convergence" >
    <i type="int" name="NELM">   100</i>
    <i type="int" name="NELMDL">    -5</i>
    <i type="int" name="NELMIN">     2</i>
    <i name="ENINI">    400.00000000</i>
    <separator name="electronic convergence detail" >
     <i type="logical" name="LDIAG"> T  </i>
     <i type="logical" name="LSUBROT"> F  </i>
     <i name="WEIMIN">      0.00000000</i>
     <i name="EBREAK">      0.00000000</i>
     <i name="DEPER">      0.30000000</i>
     <i type="int" name="NRMM">     4</i>
     <i name="TIME">      0.40000000</i>
    </separator>
   </separator>
   <separator name="electronic mixer" >
    <i name="AMIX">      0.40000000</i>
    <i name="BMIX">      1.00000000</i>
    <i name="AMIN">      0.10000000</i>
    <i name="AMIX_MAG">      1.60000000</i>
    <i name="BMIX_MAG">      1.00000000</i>
    <separator name="electronic mixer details" >
     <i type="int" name="IMIX">     4</i>
     <i type="logical" name="MIXFIRST"> F  </i>
     <i type="int" name="MAXMIX">   -45</i>
     <i name="WC">    100.00000000</i>
     <i type="int" name="INIMIX">     1</i>
     <i type="int" name="MIXPRE">     1</i>
     <i type="int" name="MREMOVE">     5</i>
    </separator>
   </separator>
   <separator name="electronic dipolcorrection" >
    <i type="logical" name="LDIPOL"> F  </i>
    <i type="logical" name="LMONO"> F  </i>
    <i type="int" name="IDIPOL">     0</i>
    <i name="EPSILON">      1.00000000</i>
    <v name="DIPOL">   -100.00000000   -100.00000000   -100.00000000</v>
    <i name="EFIELD">      0.00000000</i>
   </separator>
  </separator>
  <separator name="grids" >
   <i type="int" name="NGX">    84</i>
   <i type="int" name="NGY">    84</i>
   <i type="int" name="NGZ">    90</i>
   <i type="int" name="NGXF">   168</i>
   <i type="int" name="NGYF">   168</i>
   <i type="int" name="NGZF">   180</i>
   <i type="logical" name="ADDGRID"> F  </i>
  </separator>
  <separator name="ionic" >
   <i type="int" name="NSW">     0</i>
   <i type="int" name="IBRION">    -1</i>
   <i type="int" name="MDALGO">     0</i>
   <i type="int" name="ISIF">     2</i>
   <i name="PSTRESS">      0.00000000</i>
   <i name="EDIFFG">      0.00001000</i>
   <i type="int" name="NFREE">     0</i>
   <i name="POTIM">      0.50000000</i>
   <i name="SMASS">     -3.00000000</i>
   <i name="SCALEE">      1.00000000</i>
  </separator>
  <separator name="ionic md" >
   <i name="TEBEG">      0.00010000</i>
   <i name="TEEND">      0.00010000</i>
   <i type="int" name="NBLOCK">     1</i>
   <i type="int" name="KBLOCK">     1</i>
   <i type="int" name="NPACO">   256</i>
   <i name="APACO">     10.00000000</i>
  </separator>
  <separator name="symmetry" >
   <i type="int" name="ISYM">     2</i>
   <i name="SYMPREC">      0.00001000</i>
  </separator>
  <separator name="dos" >
   <i type="int" name="LORBIT">     0</i>
   <v name="RWIGS">     -1.00000000     -1.00000000</v>
   <i type="int" name="NEDOS">   301</i>
   <i name="EMIN">     10.00000000</i>
   <i name="EMAX">    -10.00000000</i>
   <i name="EFERMI">      0.00000000</i>
  </separator>
  <separator name="writing" >
   <i type="int" name="NWRITE">     2</i>
   <i type="logical" name="LWAVE"> F  </i>
   <i type="logical" name="LDOWNSAMPLE"> F  </i>
   <i type="logical" name="LCHARG"> F  </i>
   <i type="logical" name="LPARD"> F  </i>
   <i type="logical" name="LVTOT"> F  </i>
   <i type="logical" name="LVHAR"> F  </i>
   <i type="logical" name="LELF"> F  </i>
   <i type="logical" name="LOPTICS"> F  </i>
   <v name="STM">      0.00000000      0.00000000      0.00000000      0.00000000      0.00000000      0.00000000      0.00000000</v>
  </separator>
  <separator name="performance" >
   <i type="int" name="NPAR">    32</i>
   <i type="int" name="NSIM">     4</i>
   <i type="int" name="NBLK">    -1</i>
   <i type="logical" name="LPLANE"> T  </i>
   <i type="logical" name="LSCALAPACK"> T  </i>
   <i type="logical" name="LSCAAWARE"> F  </i>
   <i type="logical" name="LSCALU"> F  </i>
   <i type="logical" name="LASYNC"> F  </i>
   <i type="logical" name="LORBITALREAL"> F  </i>
  </separator>
  <separator name="miscellaneous" >
   <i type="int" name="IDIOT">     3</i>
   <i type="int" name="PHON_NSTRUCT">    -1</i>
   <i type="logical" name="LMUSIC"> F  </i>
   <v name="POMASS">    112.41100000     32.06600000</v>
   <v name="DARWINR">      0.00000000      0.00000000</v>
   <v name="DARWINV">      1.00000000      1.00000000</v>
   <i type="logical" name="LCORR"> T  </i>
  </separator>
  <i type="logical" name="GGA_COMPAT"> T  </i>
  <i type="logical" name="LBERRY"> F  </i>
  <i type="int" name="ICORELEVEL">     0</i>
  <i type="logical" name="LDAU"> F  </i>
  <i type="int" name="I_CONSTRAINED_M">     0</i>
  <separator name="electronic exchange-correlation" >
   <i type="string" name="GGA">PS</i>
   <i type="int" name="VOSKOWN">     0</i>
   <i type="logical" name="LHFCALC"> F  </i>
   <i type="string" name="PRECFOCK"></i>
   <i type="logical" name="LSYMGRAD"> F  </i>
   <i type="logical" name="LHFONE"> F  </i>
   <i type="logical" name="LRHFCALC"> F  </i>
   <i type="logical" name="LTHOMAS"> F  </i>
   <i type="logical" name="LMODELHF"> F  </i>
   <i type="logical" name="LFOCKACE"> F  </i>
   <i name="ENCUT4O">     -1.00000000</i>
   <i type="int" name="EXXOEP">     0</i>
   <i type="int" name="FOURORBIT">     0</i>
   <i name="AEXX">      0.00000000</i>
   <i name="HFALPHA">      0.00000000</i>
   <i name="MCALPHA">      0.00000000</i>
   <i name="ALDAX">      1.00000000</i>
   <i name="AGGAX">      1.00000000</i>
   <i name="ALDAC">      1.00000000</i>
   <i name="AGGAC">      1.00000000</i>
   <i type="int" name="NKREDX">     1</i>
   <i type="int" name="NKREDY">     1</i>
   <i type="int" name="NKREDZ">     1</i>
   <i type="logical" name="SHIFTRED"> F  </i>
   <i type="logical" name="ODDONLY"> F  </i>
   <i type="logical" name="EVENONLY"> F  </i>
   <i type="int" name="LMAXFOCK">     0</i>
   <i type="int" name="NMAXFOCKAE">     0</i>
   <i type="logical" name="LFOCKAEDFT"> F  </i>
   <i name="HFSCREEN">      0.00000000</i>
   <i name="HFSCREENC">      0.00000000</i>
   <i type="int" name="NBANDSGWLOW">     0</i>
  </separator>
  <separator name="vdW DFT" >
   <i type="logical" name="LUSE_VDW"> F  </i>
   <i type="int" name="IVDW_NL">     1</i>
   <i type="logical" name="LSPIN_VDW"> F  </i>
   <i name="Zab_VDW">     -0.84910000</i>
   <i name="PARAM1">      0.12340000</i>
   <i name="PARAM2">      1.00000000</i>
   <i name="PARAM3">      0.00000000</i>
  </separator>
  <separator name="model GW" >
   <i type="int" name="MODEL_GW">     0</i>
   <i name="MODEL_EPS0">     15.30583882</i>
   <i name="MODEL_ALPHA">      1.00000000</i>
  </separator>
  <separator name="linear response parameters" >
   <i type="logical" name="LEPSILON"> F  </i>
   <i type="logical" name="LRPA"> F  </i>
   <i type="logical" name="LNABLA"> F  </i>
   <i type="logical" name="LVEL"> F  </i>
   <i name="CSHIFT">      0.10000000</i>
   <i name="OMEGAMAX">     -1.00000000</i>
   <i name="DEG_THRESHOLD">      0.00200000</i>
   <i name="RTIME">     -0.10000000</i>
   <i name="WPLASMAI">      0.00000000</i>
   <v name="DFIELD">      0.00000000      0.00000000      0.00000000</v>
   <v name="WPLASMA">      0.00000000      0.00000000      0.00000000      0.00000000      0.00000000      0.00000000      0.00000000      0.00000000      0.00000000</v>
  </separator>
  <separator name="orbital magnetization" >
   <i type="logical" name="NUCIND"> F  </i>
   <v name="MAGPOS">      0.00000000      0.00000000      0.00000000</v>
   <i type="logical" name="LNICSALL"> T  </i>
   <i type="logical" name="ORBITALMAG"> F  </i>
   <i type="logical" name="LMAGBLOCH"> F  </i>
   <i type="logical" name="LCHIMAG"> F  </i>
   <i type="logical" name="LGAUGE"> T  </i>
   <i type="int" name="MAGATOM">     0</i>
   <v name="MAGDIPOL">      0.00000000      0.00000000      0.00000000</v>
   <v name="AVECCONST">      0.00000000      0.00000000      0.00000000</v>
  </separator>
  <separator name="response functions" >
   <i type="logical" name="LALL_IN_ONE"> F  </i>
   <i type="int" name="IALL_IN_ONE">    -1</i>
   <i type="int" name="NBANDS_WAVE">    -1</i>
   <i type="logical" name="LFINITE_TEMPERATURE"> F  </i>
   <i type="logical" name="LADDER"> F  </i>
   <i type="logical" name="LRPAFORCE"> F  </i>
   <i type="logical" name="LFXC"> F  </i>
   <i type="logical" name="LHARTREE"> T  </i>
   <i type="int" name="IBSE">     0</i>
   <v type="int" name="KPOINT">    -1     0     0     0</v>
   <i type="logical" name="LTCTC"> F  </i>
   <i type="logical" name="LTCTE"> F  </i>
   <i type="logical" name="LTETE"> F  </i>
   <i type="logical" name="LTRIPLET"> F  </i>
   <i type="logical" name="LFXCEPS"> F  </i>
   <i type="logical" name="LFXHEG"> F  </i>
   <i type="int" name="NATURALO">     2</i>
   <i type="logical" name="LHOLEGF"> F  </i>
   <i type="logical" name="L2ORDER"> F  </i>
   <i type="logical" name="LDMP1"> F  </i>
   <i type="logical" name="LMP2LT"> F  </i>
   <i type="logical" name="LSMP2LT"> F  </i>
   <i type="logical" name="LGWLF"> F  </i>
   <i name="ENCUTGW">     -1.60000002</i>
   <i name="ENCUTGWSOFT">     -1.60000002</i>
   <i name="ENCUTLF">     -1.00000000</i>
   <i type="logical" name="LESF_SPLINES"> F  </i>
   <i type="int" name="LMAXMP2">    -1</i>
   <i name="SCISSOR">      0.00000000</i>
   <i type="int" name="NOMEGA">     0</i>
   <i type="int" name="NOMEGAR">     0</i>
   <i type="int" name="NBANDSGW">    -1</i>
   <i type="int" name="NBANDSO">    -1</i>
   <i type="int" name="NBANDSV">    -1</i>
   <i type="int" name="NELMGW">     1</i>
   <i type="int" name="NELMHF">     1</i>
   <i type="int" name="DIM">     3</i>
   <i type="int" name="IESPILON">     4</i>
   <i type="int" name="ANTIRES">     0</i>
   <i name="OMEGAMAX">    -30.00000000</i>
   <i name="OMEGAMIN">    -30.00000000</i>
   <i name="OMEGATL">   -200.00000000</i>
   <i type="int" name="OMEGAGRID">     0</i>
   <i name="CSHIFT">     -0.10000000</i>
   <i type="logical" name="LSELFENERGY"> F  </i>
   <i type="logical" name="LSPECTRAL"> F  </i>
   <i type="logical" name="LSPECTRALGW"> F  </i>
   <i type="logical" name="LSINGLES"> F  </i>
   <i type="logical" name="LFERMIGW"> F  </i>
   <i type="logical" name="ODDONLYGW"> F  </i>
   <i type="logical" name="EVENONLYGW"> F  </i>
   <i type="int" name="NKREDLFX">     1</i>
   <i type="int" name="NKREDLFY">     1</i>
   <i type="int" name="NKREDLFZ">     1</i>
   <i type="int" name="MAXMEM">  2800</i>
   <i type="int" name="TELESCOPE">     0</i>
   <i type="int" name="NTAUPAR">    -1</i>
   <i type="int" name="NOMEGAPAR">    -1</i>
   <i name="DAMP_NEWTON">      0.80000001</i>
   <i name="LAMBDA">      1.00000000</i>
  </separator>
  <separator name="External order field" >
   <i name="OFIELD_KAPPA">      0.00000000</i>
   <v name="OFIELD_K">      0.00000000      0.00000000      0.00000000</v>
   <i name="OFIELD_Q6_NEAR">      0.00000000</i>
   <i name="OFIELD_Q6_FAR">      0.00000000</i>
   <i name="OFIELD_A">      0.00000000</i>
  </separator>
  <separator name="optional k-points parameters" >
   <i type="int" name="KPOINTS_OPT_MODE">     1</i>
   <i type="logical" name="LKPOINTS_OPT"> F  </i>
  </separator>
 </parameters>
 <atominfo>
  <atoms>      72 </atoms>
  <types>       2 </types>
  <array name="atoms" >
   <dimension dim="1">ion</dimension>
   <field type="string">element</field>
   <field type="int">atomtype</field>
   <set>
    <rc><c>Cd</c><c>   1</c></rc>
    <rc><c>Cd</c><c>   1</c></rc>
    <rc><c>Cd</c><c>   1</c></rc>
    <rc><c>Cd</c><c>   1</c></rc>
    <rc><c>Cd</c><c>   1</c></rc>
    <rc><c>Cd</c><c>   1</c></rc>
    <rc><c>Cd</c><c>   1</c></rc>
    <rc><c>Cd</c><c>   1</c></rc>
    <rc><c>Cd</c><c>   1</c></rc>
    <rc><c>Cd</c><c>   1</c></rc>
    <rc><c>Cd</c><c>   1</c></rc>
    <rc><c>Cd</c><c>   1</c></rc>
    <rc><c>Cd</c><c>   1</c></rc>
    <rc><c>Cd</c><c>   1</c></rc>
    <rc><c>Cd</c><c>   1</c></rc>
    <rc><c>Cd</c><c>   1</c></rc>
    <rc><c>Cd</c><c>   1</c></rc>
    <rc><c>Cd</c><c>   1</c></rc>
    <rc><c>Cd</c><c>   1</c></rc>
    <rc><c>Cd</c><c>   1</c></rc>
    <rc><c>Cd</c><c>   1</c></rc>
    <rc><c>Cd</c><c>   1</c></rc>
    <rc><c>Cd</c><c>   1</c></rc>
    <rc><c>Cd</c><c>   1</c></rc>
    <rc><c>Cd</c><c>   1</c></rc>
    <rc><c>Cd</c><c>   1</c></rc>
    <rc><c>Cd</c><c>   1</c></rc>
    <rc><c>Cd</c><c>   1</c></rc>
    <rc><c>Cd</c><c>   1</c></rc>
    <rc><c>Cd</c><c>   1</c></rc>
    <rc><c>Cd</c><c>   1</c></rc>
    <rc><c>Cd</c><c>   1</c></rc>
    <rc><c>Cd</c><c>   1</c></rc>
    <rc><c>Cd</c><c>   1</c></rc>
    <rc><c>Cd</c><c>   1</c></rc>
    <rc><c>Cd</c><c>   1</c></rc>
    <rc><c>S </c><c>   2</c></rc>
    <rc><c>S </c><c>   2</c></rc>
    <rc><c>S </c><c>   2</c></rc>
    <rc><c>S </c><c>   2</c></rc>
    <rc><c>S </c><c>   2</c></rc>
    <rc><c>S </c><c>   2</c></rc>
    <rc><c>S </c><c>   2</c></rc>
    <rc><c>S </c><c>   2</c></rc>
    <rc><c>S </c><c>   2</c></rc>
    <rc><c>S </c><c>   2</c></rc>
    <rc><c>S </c><c>   2</c></rc>
    <rc><c>S </c><c>   2</c></rc>
    <rc><c>S </c><c>   2</c></rc>
    <rc><c>S </c><c>   2</c></rc>
    <rc><c>S </c><c>   2</c></rc>
    <rc><c>S </c><c>   2</c></rc>
    <rc><c>S </c><c>   2</c></rc>
    <rc><c>S </c><c>   2</c></rc>
    <rc><c>S </c><c>   2</c></rc>
    <rc><c>S </c><c>   2</c></rc>
    <rc><c>S </c><c>   2</c></rc>
    <rc><c>S </c><c>   2</c></rc>
    <rc><c>S </c><c>   2</c></rc>
    <rc><c>S </c><c>   2</c></rc>
    <rc><c>S </c><c>   2</c></rc>
    <rc><c>S </c><c>   2</c></rc>
    <rc><c>S </c><c>   2</c></rc>
    <rc><c>S </c><c>   2</c></rc>
    <rc><c>S </c><c>   2</c></rc>
    <rc><c>S </c><c>   2</c></rc>
    <rc><c>S </c><c>   2</c></rc>
    <rc><c>S </c><c>   2</c></rc>
    <rc><c>S </c><c>   2</c></rc>
    <rc><c>S </c><c>   2</c></rc>
    <rc><c>S </c><c>   2</c></rc>
    <rc><c>S </c><c>   2</c></rc>
   </set>
  </array>
  <array name="atomtypes" >
   <dimension dim="1">type</dimension>
   <field type="int">atomspertype</field>
   <field type="string">element</field>
   <field>mass</field>
   <field>valence</field>
   <field type="string">pseudopotential</field>
   <set>
    <rc><c>  36</c><c>Cd</c><c>    112.41100000</c><c>     12.00000000</c><c>  PAW_PBE Cd 06Sep2000                  </c></rc>
    <rc><c>  36</c><c>S </c><c>     32.06600000</c><c>      6.00000000</c><c>  PAW_PBE S 06Sep2000                   </c></rc>
   </set>
  </array>
 </atominfo>
 <structure name="initialpos" >
  <crystal>
   <varray name="basis" >
    <v>       6.25325715     -10.83095910       0.00000000 </v>
    <v>       6.25325715      10.83095910       0.00000000 </v>
    <v>       0.00000000       0.00000000      13.55923482 </v>
   </varray>
   <i name="volume">   1836.70065798 </i>
   <varray name="rec_basis" >
    <v>       0.07995833      -0.04616396       0.00000000 </v>
    <v>       0.07995833       0.04616396       0.00000000 </v>
    <v>       0.00000000       0.00000000       0.07375047 </v>
   </varray>
  </crystal>
  <varray name="positions" >
   <v>       0.22222222       0.11111111       0.25011218 </v>
   <v>       0.22222222       0.77777778       0.75011218 </v>
   <v>       0.11111111       0.88888889       0.50011218 </v>
   <v>       0.55555556       0.77777778       0.25011218 </v>
   <v>       0.44444444       0.88888889       0.50011218 </v>
   <v>       0.55555556       0.11111111       0.25011218 </v>
   <v>       0.44444444       0.22222222       0.00011218 </v>
   <v>       0.88888889       0.44444444       0.75011218 </v>
   <v>       0.77777778       0.55555556       0.00011218 </v>
   <v>       0.55555556       0.11111111       0.75011218 </v>
   <v>       0.44444444       0.22222222       0.50011218 </v>
   <v>       0.55555556       0.44444444       0.25011218 </v>
   <v>       0.44444444       0.55555556       0.00011218 </v>
   <v>       0.77777778       0.22222222       0.50011218 </v>
   <v>       0.88888889       0.11111111       0.75011218 </v>
   <v>       0.88888889       0.44444444       0.25011218 </v>
   <v>       0.55555556       0.44444444       0.75011218 </v>
   <v>       0.77777778       0.55555556       0.50011218 </v>
   <v>       0.22222222       0.77777778       0.25011218 </v>
   <v>       0.11111111       0.22222222       0.00011218 </v>
   <v>       0.77777778       0.88888889       0.50011218 </v>
   <v>       0.88888889       0.77777778       0.75011218 </v>
   <v>       0.22222222       0.11111111       0.75011218 </v>
   <v>       0.11111111       0.22222222       0.50011218 </v>
   <v>       0.55555556       0.77777778       0.75011218 </v>
   <v>       0.11111111       0.88888889       0.00011218 </v>
   <v>       0.88888889       0.11111111       0.25011218 </v>
   <v>       0.11111111       0.55555556       0.00011218 </v>
   <v>       0.77777778       0.88888889       0.00011218 </v>
   <v>       0.88888889       0.77777778       0.25011218 </v>
   <v>       0.22222222       0.44444444       0.75011218 </v>
   <v>       0.11111111       0.55555556       0.50011218 </v>
   <v>       0.77777778       0.22222222       0.00011218 </v>
   <v>       0.44444444       0.88888889       0.00011218 </v>
   <v>       0.22222222       0.44444444       0.25011218 </v>
   <v>       0.44444444       0.55555556       0.50011218 </v>
   <v>       0.88888889       0.11111111       0.43838781 </v>
   <v>       0.77777778       0.22222222       0.18838781 </v>
   <v>       0.88888889       0.44444444       0.43838781 </v>
   <v>       0.77777778       0.22222222       0.68838781 </v>
   <v>       0.77777778       0.55555556       0.18838781 </v>
   <v>       0.88888889       0.44444444       0.93838781 </v>
   <v>       0.77777778       0.55555556       0.68838781 </v>
   <v>       0.88888889       0.77777778       0.43838781 </v>
   <v>       0.77777778       0.88888889       0.18838781 </v>
   <v>       0.88888889       0.11111111       0.93838781 </v>
   <v>       0.44444444       0.88888889       0.68838781 </v>
   <v>       0.44444444       0.55555556       0.18838781 </v>
   <v>       0.44444444       0.88888889       0.18838781 </v>
   <v>       0.22222222       0.11111111       0.43838781 </v>
   <v>       0.11111111       0.22222222       0.18838781 </v>
   <v>       0.22222222       0.11111111       0.93838781 </v>
   <v>       0.11111111       0.22222222       0.68838781 </v>
   <v>       0.22222222       0.44444444       0.43838781 </v>
   <v>       0.11111111       0.55555556       0.18838781 </v>
   <v>       0.22222222       0.44444444       0.93838781 </v>
   <v>       0.11111111       0.55555556       0.68838781 </v>
   <v>       0.22222222       0.77777778       0.43838781 </v>
   <v>       0.11111111       0.88888889       0.18838781 </v>
   <v>       0.22222222       0.77777778       0.93838781 </v>
   <v>       0.11111111       0.88888889       0.68838781 </v>
   <v>       0.55555556       0.11111111       0.43838781 </v>
   <v>       0.44444444       0.22222222       0.18838781 </v>
   <v>       0.55555556       0.11111111       0.93838781 </v>
   <v>       0.44444444       0.22222222       0.68838781 </v>
   <v>       0.55555556       0.44444444       0.43838781 </v>
   <v>       0.88888889       0.77777778       0.93838781 </v>
   <v>       0.55555556       0.44444444       0.93838781 </v>
   <v>       0.44444444       0.55555556       0.68838781 </v>
   <v>       0.55555556       0.77777778       0.43838781 </v>
   <v>       0.55555556       0.77777778       0.93838781 </v>
   <v>       0.77777778       0.88888889       0.68838781 </v>
  </varray>
 </structure>
 <calculation>
  <scstep>
   <time name="dav">    6.33    8.09</time>
   <time name="total">    6.88    8.99</time>
   <energy>
    <i name="alphaZ">   2675.77335074 </i>
    <i name="ewald"> -41363.78645763 </i>
    <i name="hartreedc"> -16920.60810503 </i>
    <i name="XCdc">    684.19700056 </i>
    <i name="pawpsdc">  50859.63822305 </i>
    <i name="pawaedc"> -49554.61650470 </i>
    <i name="eentropy">     -0.04289127 </i>
    <i name="bandstr">   1206.56698557 </i>
    <i name="atom">  56479.20065936 </i>
    <i name="e_fr_energy">   4066.32226067 </i>
    <i name="e_wo_entrp">   4066.36515194 </i>
    <i name="e_0_energy">   4066.34370630 </i>
   </energy>
  </scstep>
  <scstep>
   <time name="dav">    6.86    7.68</time>
   <time name="total">    6.86    7.68</time>
   <energy>
    <i name="e_fr_energy">     24.06740284 </i>
    <i name="e_wo_entrp">     24.06740284 </i>
    <i name="e_0_energy">     24.06740284 </i>
   </energy>
  </scstep>
  <scstep>
   <time name="dav">    7.00    7.73</time>
   <time name="total">    7.01    7.73</time>
   <energy>
    <i name="e_fr_energy">   -256.30005416 </i>
    <i name="e_wo_entrp">   -256.30005416 </i>
    <i name="e_0_energy">   -256.30005416 </i>
   </energy>
  </scstep>
  <scstep>
   <time name="dav">    6.46    6.48</time>
   <time name="total">    6.46    6.48</time>
   <energy>
    <i name="e_fr_energy">   -261.12378407 </i>
    <i name="e_wo_entrp">   -261.12378407 </i>
    <i name="e_0_energy">   -261.12378407 </i>
   </energy>
  </scstep>
  <scstep>
   <time name="dav">    6.43    6.45</time>
   <time name="total">    6.73    6.79</time>
   <energy>
    <i name="e_fr_energy">   -261.22718537 </i>
    <i name="e_wo_entrp">   -261.22718537 </i>
    <i name="e_0_energy">   -261.22718537 </i>
   </energy>
  </scstep>
  <scstep>
   <time name="dav">    7.28    7.35</time>
   <time name="total">    7.69    7.76</time>
   <energy>
    <i name="e_fr_energy">   -242.63174747 </i>
    <i name="e_wo_entrp">   -242.63174747 </i>
    <i name="e_0_energy">   -242.63174747 </i>
   </energy>
  </scstep>
  <scstep>
   <time name="dav">    6.35    6.37</time>
   <time name="total">    6.79    6.81</time>
   <energy>
    <i name="e_fr_energy">   -242.40343529 </i>
    <i name="e_wo_entrp">   -242.40343529 </i>
    <i name="e_0_energy">   -242.40343529 </i>
   </energy>
  </scstep>
  <scstep>
   <time name="dav">    6.66    6.69</time>
   <time name="total">    7.08    7.11</time>
   <energy>
    <i name="e_fr_energy">   -242.13947831 </i>
    <i name="e_wo_entrp">   -242.13947831 </i>
    <i name="e_0_energy">   -242.13947831 </i>
   </energy>
  </scstep>
  <scstep>
   <time name="dav">    6.35    6.37</time>
   <time name="total">    6.77    6.79</time>
   <energy>
    <i name="e_fr_energy">   -242.12450467 </i>
    <i name="e_wo_entrp">   -242.12450467 </i>
    <i name="e_0_energy">   -242.12450467 </i>
   </energy>
  </scstep>
  <scstep>
   <time name="dav">    6.10    6.11</time>
   <time name="total">    6.52    6.54</time>
   <energy>
    <i name="e_fr_energy">   -242.12205637 </i>
    <i name="e_wo_entrp">   -242.12205637 </i>
    <i name="e_0_energy">   -242.12205637 </i>
   </energy>
  </scstep>
  <scstep>
   <time name="dav">    7.37    7.46</time>
   <time name="total">    7.80    7.89</time>
   <energy>
    <i name="e_fr_energy">   -242.12423009 </i>
    <i name="e_wo_entrp">   -242.12423009 </i>
    <i name="e_0_energy">   -242.12423009 </i>
   </energy>
  </scstep>
  <scstep>
   <time name="dav">    5.98    6.00</time>
   <time name="total">    6.40    6.42</time>
   <energy>
    <i name="e_fr_energy">   -242.12459610 </i>
    <i name="e_wo_entrp">   -242.12459610 </i>
    <i name="e_0_energy">   -242.12459610 </i>
   </energy>
  </scstep>
  <scstep>
   <time name="dav">    6.44    6.46</time>
   <time name="total">    6.86    6.88</time>
   <energy>
    <i name="e_fr_energy">   -242.12464130 </i>
    <i name="e_wo_entrp">   -242.12464130 </i>
    <i name="e_0_energy">   -242.12464130 </i>
   </energy>
  </scstep>
  <scstep>
   <time name="dav">    5.93    5.95</time>
   <time name="total">    6.33    6.35</time>
   <energy>
    <i name="e_fr_energy">   -242.12474320 </i>
    <i name="e_wo_entrp">   -242.12474320 </i>
    <i name="e_0_energy">   -242.12474320 </i>
   </energy>
  </scstep>
  <scstep>
   <time name="dav">    6.44    6.46</time>
   <time name="total">    6.84    6.86</time>
   <energy>
    <i name="e_fr_energy">   -242.12473235 </i>
    <i name="e_wo_entrp">   -242.12473235 </i>
    <i name="e_0_energy">   -242.12473235 </i>
   </energy>
  </scstep>
  <scstep>
   <time name="dav">    5.76    5.83</time>
   <time name="total">    6.17    6.24</time>
   <energy>
    <i name="e_fr_energy">   -242.12473075 </i>
    <i name="e_wo_entrp">   -242.12473075 </i>
    <i name="e_0_energy">   -242.12473075 </i>
   </energy>
  </scstep>
  <scstep>
   <time name="dav">    4.67    4.69</time>
   <time name="total">    4.77    4.78</time>
   <energy>
    <i name="alphaZ">   2675.77335074 </i>
    <i name="ewald"> -41363.78645763 </i>
    <i name="hartreedc"> -16807.61539486 </i>
    <i name="XCdc">    692.32434226 </i>
    <i name="pawpsdc">  64622.86481415 </i>
    <i name="pawaedc"> -63290.71843741 </i>
    <i name="eentropy">     -0.00000000 </i>
    <i name="bandstr">  -3250.16760789 </i>
    <i name="atom">  56479.20065936 </i>
    <i name="e_fr_energy">   -242.12473128 </i>
    <i name="e_wo_entrp">   -242.12473128 </i>
    <i name="e_0_energy">   -242.12473128 </i>
   </energy>
  </scstep>
  <structure>
   <crystal>
    <varray name="basis" >
     <v>       6.25325715     -10.83095910       0.00000000 </v>
     <v>       6.25325715      10.83095910       0.00000000 </v>
     <v>       0.00000000       0.00000000      13.55923482 </v>
    </varray>
    <i name="volume">   1836.70065798 </i>
    <varray name="rec_basis" >
     <v>       0.07995833      -0.04616396       0.00000000 </v>
     <v>       0.07995833       0.04616396       0.00000000 </v>
     <v>       0.00000000       0.00000000       0.07375047 </v>
    </varray>
   </crystal>
   <varray name="positions" >
    <v>       0.22222222       0.11111111       0.25011218 </v>
    <v>       0.22222222       0.77777778       0.75011218 </v>
    <v>       0.11111111       0.88888889       0.50011218 </v>
    <v>       0.55555556       0.77777778       0.25011218 </v>
    <v>       0.44444444       0.88888889       0.50011218 </v>
    <v>       0.55555556       0.11111111       0.25011218 </v>
    <v>       0.44444444       0.22222222       0.00011218 </v>
    <v>       0.88888889       0.44444444       0.75011218 </v>
    <v>       0.77777778       0.55555556       0.00011218 </v>
    <v>       0.55555556       0.11111111       0.75011218 </v>
    <v>       0.44444444       0.22222222       0.50011218 </v>
    <v>       0.55555556       0.44444444       0.25011218 </v>
    <v>       0.44444444       0.55555556       0.00011218 </v>
    <v>       0.77777778       0.22222222       0.50011218 </v>
    <v>       0.88888889       0.11111111       0.75011218 </v>
    <v>       0.88888889       0.44444444       0.25011218 </v>
    <v>       0.55555556       0.44444444       0.75011218 </v>
    <v>       0.77777778       0.55555556       0.50011218 </v>
    <v>       0.22222222       0.77777778       0.25011218 </v>
    <v>       0.11111111       0.22222222       0.00011218 </v>
    <v>       0.77777778       0.88888889       0.50011218 </v>
    <v>       0.88888889       0.77777778       0.75011218 </v>
    <v>       0.22222222       0.11111111       0.75011218 </v>
    <v>       0.11111111       0.22222222       0.50011218 </v>
    <v>       0.55555556       0.77777778       0.75011218 </v>
    <v>       0.11111111       0.88888889       0.00011218 </v>
    <v>       0.88888889       0.11111111       0.25011218 </v>
    <v>       0.11111111       0.55555556       0.00011218 </v>
    <v>       0.77777778       0.88888889       0.00011218 </v>
    <v>       0.88888889       0.77777778       0.25011218 </v>
    <v>       0.22222222       0.44444444       0.75011218 </v>
    <v>       0.11111111       0.55555556       0.50011218 </v>
    <v>       0.77777778       0.22222222       0.00011218 </v>
    <v>       0.44444444       0.88888889       0.00011218 </v>
    <v>       0.22222222       0.44444444       0.25011218 </v>
    <v>       0.44444444       0.55555556       0.50011218 </v>
    <v>       0.88888889       0.11111111       0.43838781 </v>
    <v>       0.77777778       0.22222222       0.18838781 </v>
    <v>       0.88888889       0.44444444       0.43838781 </v>
    <v>       0.77777778       0.22222222       0.68838781 </v>
    <v>       0.77777778       0.55555556       0.18838781 </v>
    <v>       0.88888889       0.44444444       0.93838781 </v>
    <v>       0.77777778       0.55555556       0.68838781 </v>
    <v>       0.88888889       0.77777778       0.43838781 </v>
    <v>       0.77777778       0.88888889       0.18838781 </v>
    <v>       0.88888889       0.11111111       0.93838781 </v>
    <v>       0.44444444       0.88888889       0.68838781 </v>
    <v>       0.44444444       0.55555556       0.18838781 </v>
    <v>       0.44444444       0.88888889       0.18838781 </v>
    <v>       0.22222222       0.11111111       0.43838781 </v>
    <v>       0.11111111       0.22222222       0.18838781 </v>
    <v>       0.22222222       0.11111111       0.93838781 </v>
    <v>       0.11111111       0.22222222       0.68838781 </v>
    <v>       0.22222222       0.44444444       0.43838781 </v>
    <v>       0.11111111       0.55555556       0.18838781 </v>
    <v>       0.22222222       0.44444444       0.93838781 </v>
    <v>       0.11111111       0.55555556       0.68838781 </v>
    <v>       0.22222222       0.77777778       0.43838781 </v>
    <v>       0.11111111       0.88888889       0.18838781 </v>
    <v>       0.22222222       0.77777778       0.93838781 </v>
    <v>       0.11111111       0.88888889       0.68838781 </v>
    <v>       0.55555556       0.11111111       0.43838781 </v>
    <v>       0.44444444       0.22222222       0.18838781 </v>
    <v>       0.55555556       0.11111111       0.93838781 </v>
    <v>       0.44444444       0.22222222       0.68838781 </v>
    <v>       0.55555556       0.44444444       0.43838781 </v>
    <v>       0.88888889       0.77777778       0.93838781 </v>
    <v>       0.55555556       0.44444444       0.93838781 </v>
    <v>       0.44444444       0.55555556       0.68838781 </v>
    <v>       0.55555556       0.77777778       0.43838781 </v>
    <v>       0.55555556       0.77777778       0.93838781 </v>
    <v>       0.77777778       0.88888889       0.68838781 </v>
   </varray>
  </structure>
  <varray name="forces" >
   <v>      -0.00000000      -0.00000000       0.04565739 </v>
   <v>       0.00000000      -0.00000000       0.04565739 </v>
   <v>       0.00000000       0.00000000       0.04565739 </v>
   <v>      -0.00000000      -0.00000000       0.04565739 </v>
   <v>      -0.00000000       0.00000000       0.04565739 </v>
   <v>      -0.00000000      -0.00000000       0.04565739 </v>
   <v>      -0.00000000       0.00000000       0.04565739 </v>
   <v>       0.00000000       0.00000000       0.04565739 </v>
   <v>      -0.00000000      -0.00000000       0.04565739 </v>
   <v>       0.00000000       0.00000000       0.04565739 </v>
   <v>       0.00000000       0.00000000       0.04565739 </v>
   <v>      -0.00000000      -0.00000000       0.04565739 </v>
   <v>      -0.00000000      -0.00000000       0.04565739 </v>
   <v>       0.00000000       0.00000000       0.04565739 </v>
   <v>       0.00000000      -0.00000000       0.04565739 </v>
   <v>      -0.00000000      -0.00000000       0.04565739 </v>
   <v>       0.00000000      -0.00000000       0.04565739 </v>
   <v>       0.00000000       0.00000000       0.04565739 </v>
   <v>      -0.00000000      -0.00000000       0.04565739 </v>
   <v>      -0.00000000      -0.00000000       0.04565739 </v>
   <v>       0.00000000       0.00000000       0.04565739 </v>
   <v>       0.00000000      -0.00000000       0.04565739 </v>
   <v>       0.00000000       0.00000000       0.04565739 </v>
   <v>       0.00000000       0.00000000       0.04565739 </v>
   <v>      -0.00000000      -0.00000000       0.04565739 </v>
   <v>      -0.00000000       0.00000000       0.04565739 </v>
   <v>      -0.00000000      -0.00000000       0.04565739 </v>
   <v>      -0.00000000      -0.00000000       0.04565739 </v>
   <v>      -0.00000000       0.00000000       0.04565739 </v>
   <v>      -0.00000000      -0.00000000       0.04565739 </v>
   <v>       0.00000000       0.00000000       0.04565739 </v>
   <v>       0.00000000       0.00000000       0.04565739 </v>
   <v>      -0.00000000      -0.00000000       0.04565739 </v>
   <v>      -0.00000000       0.00000000       0.04565739 </v>
   <v>      -0.00000000      -0.00000000       0.04565739 </v>
   <v>       0.00000000       0.00000000       0.04565739 </v>
   <v>      -0.00000000      -0.00000000      -0.04565739 </v>
   <v>      -0.00000000       0.00000000      -0.04565739 </v>
   <v>       0.00000000      -0.00000000      -0.04565739 </v>
   <v>       0.00000000       0.00000000      -0.04565739 </v>
   <v>      -0.00000000      -0.00000000      -0.04565739 </v>
   <v>      -0.00000000       0.00000000      -0.04565739 </v>
   <v>       0.00000000       0.00000000      -0.04565739 </v>
   <v>      -0.00000000       0.00000000      -0.04565739 </v>
   <v>      -0.00000000       0.00000000      -0.04565739 </v>
   <v>      -0.00000000       0.00000000      -0.04565739 </v>
   <v>       0.00000000       0.00000000      -0.04565739 </v>
   <v>       0.00000000      -0.00000000      -0.04565739 </v>
   <v>       0.00000000       0.00000000      -0.04565739 </v>
   <v>      -0.00000000      -0.00000000      -0.04565739 </v>
   <v>      -0.00000000       0.00000000      -0.04565739 </v>
   <v>      -0.00000000      -0.00000000      -0.04565739 </v>
   <v>       0.00000000      -0.00000000      -0.04565739 </v>
   <v>       0.00000000      -0.00000000      -0.04565739 </v>
   <v>      -0.00000000      -0.00000000      -0.04565739 </v>
   <v>      -0.00000000       0.00000000      -0.04565739 </v>
   <v>       0.00000000       0.00000000      -0.04565739 </v>
   <v>       0.00000000       0.00000000      -0.04565739 </v>
   <v>      -0.00000000       0.00000000      -0.04565739 </v>
   <v>       0.00000000      -0.00000000      -0.04565739 </v>
   <v>       0.00000000       0.00000000      -0.04565739 </v>
   <v>       0.00000000      -0.00000000      -0.04565739 </v>
   <v>      -0.00000000       0.00000000      -0.04565739 </v>
   <v>       0.00000000      -0.00000000      -0.04565739 </v>
   <v>       0.00000000      -0.00000000      -0.04565739 </v>
   <v>       0.00000000      -0.00000000      -0.04565739 </v>
   <v>       0.00000000      -0.00000000      -0.04565739 </v>
   <v>      -0.00000000       0.00000000      -0.04565739 </v>
   <v>       0.00000000       0.00000000      -0.04565739 </v>
   <v>       0.00000000       0.00000000      -0.04565739 </v>
   <v>       0.00000000      -0.00000000      -0.04565739 </v>
   <v>       0.00000000       0.00000000      -0.04565739 </v>
  </varray>
  <varray name="stress" >
   <v>     -12.35241404      -0.00000000       0.00000000 </v>
   <v>      -0.00000000     -12.35241404       0.00000000 </v>
   <v>       0.00000000       0.00000000     -20.98671650 </v>
  </varray>
  <energy>
   <i name="e_fr_energy">   -242.12473128 </i>
   <i name="e_wo_entrp">   -242.12473128 </i>
   <i name="e_0_energy">   -242.12473128 </i>
  </energy>
  <time name="totalsc">  120.95  125.16</time>
  <eigenvalues>
   <array>
    <dimension dim="1">band</dimension>
    <dimension dim="2">kpoint</dimension>
    <dimension dim="3">spin</dimension>
    <field>eigene</field>
    <field>occ</field>
    <set>
     <set comment="spin 1">
      <set comment="kpoint 1">
       <r>  -11.1950    1.0000 </r>
       <r>  -10.9808    1.0000 </r>
       <r>  -10.9808    1.0000 </r>
       <r>  -10.9027    1.0000 </r>
       <r>  -10.9027    1.0000 </r>
       <r>  -10.9027    1.0000 </r>
       <r>  -10.9027    1.0000 </r>
       <r>  -10.9027    1.0000 </r>
       <r>  -10.9027    1.0000 </r>
       <r>  -10.7763    1.0000 </r>
       <r>  -10.7763    1.0000 </r>
       <r>  -10.7763    1.0000 </r>
       <r>  -10.7763    1.0000 </r>
       <r>  -10.7763    1.0000 </r>
       <r>  -10.7763    1.0000 </r>
       <r>  -10.7763    1.0000 </r>
       <r>  -10.7763    1.0000 </r>
       <r>  -10.7763    1.0000 </r>
       <r>  -10.7763    1.0000 </r>
       <r>  -10.7763    1.0000 </r>
       <r>  -10.7763    1.0000 </r>
       <r>  -10.7740    1.0000 </r>
       <r>  -10.6876    1.0000 </r>
       <r>  -10.6876    1.0000 </r>
       <r>  -10.6876    1.0000 </r>
       <r>  -10.6876    1.0000 </r>
       <r>  -10.6768    1.0000 </r>
       <r>  -10.6768    1.0000 </r>
       <r>  -10.6768    1.0000 </r>
       <r>  -10.6768    1.0000 </r>
       <r>  -10.6680    1.0000 </r>
       <r>  -10.6680    1.0000 </r>
       <r>  -10.6680    1.0000 </r>
       <r>  -10.6680    1.0000 </r>
       <r>  -10.6680    1.0000 </r>
       <r>  -10.6680    1.0000 </r>
       <r>   -6.6319    1.0000 </r>
       <r>   -6.6218    1.0000 </r>
       <r>   -6.6218    1.0000 </r>
       <r>   -6.5890    1.0000 </r>
       <r>   -6.5890    1.0000 </r>
       <r>   -6.5890    1.0000 </r>
       <r>   -6.5890    1.0000 </r>
       <r>   -6.5637    1.0000 </r>
       <r>   -6.5637    1.0000 </r>
       <r>   -6.5507    1.0000 </r>
       <r>   -6.5507    1.0000 </r>
       <r>   -6.5507    1.0000 </r>
       <r>   -6.5507    1.0000 </r>
       <r>   -6.5507    1.0000 </r>
       <r>   -6.5507    1.0000 </r>
       <r>   -6.5429    1.0000 </r>
       <r>   -6.5429    1.0000 </r>
       <r>   -6.5331    1.0000 </r>
       <r>   -6.5331    1.0000 </r>
       <r>   -6.5331    1.0000 </r>
       <r>   -6.5331    1.0000 </r>
       <r>   -6.5331    1.0000 </r>
       <r>   -6.5331    1.0000 </r>
       <r>   -6.5088    1.0000 </r>
       <r>   -6.5088    1.0000 </r>
       <r>   -6.5088    1.0000 </r>
       <r>   -6.5088    1.0000 </r>
       <r>   -6.5088    1.0000 </r>
       <r>   -6.5088    1.0000 </r>
       <r>   -6.5088    1.0000 </r>
       <r>   -6.5088    1.0000 </r>
       <r>   -6.5088    1.0000 </r>
       <r>   -6.5088    1.0000 </r>
       <r>   -6.5088    1.0000 </r>
       <r>   -6.5088    1.0000 </r>
       <r>   -6.4601    1.0000 </r>
       <r>   -6.4601    1.0000 </r>
       <r>   -6.4601    1.0000 </r>
       <r>   -6.4601    1.0000 </r>
       <r>   -6.4601    1.0000 </r>
       <r>   -6.4601    1.0000 </r>
       <r>   -6.4601    1.0000 </r>
       <r>   -6.4601    1.0000 </r>
       <r>   -6.4601    1.0000 </r>
       <r>   -6.4601    1.0000 </r>
       <r>   -6.4601    1.0000 </r>
       <r>   -6.4601    1.0000 </r>
       <r>   -6.4523    1.0000 </r>
       <r>   -6.4523    1.0000 </r>
       <r>   -6.4523    1.0000 </r>
       <r>   -6.4523    1.0000 </r>
       <r>   -6.4350    1.0000 </r>
       <r>   -6.4350    1.0000 </r>
       <r>   -6.4350    1.0000 </r>
       <r>   -6.4350    1.0000 </r>
       <r>   -6.4164    1.0000 </r>
       <r>   -6.4164    1.0000 </r>
       <r>   -6.4164    1.0000 </r>
       <r>   -6.4164    1.0000 </r>
       <r>   -6.4164    1.0000 </r>
       <r>   -6.4164    1.0000 </r>
       <r>   -6.4146    1.0000 </r>
       <r>   -6.4146    1.0000 </r>
       <r>   -6.3978    1.0000 </r>
       <r>   -6.3978    1.0000 </r>
       <r>   -6.3978    1.0000 </r>
       <r>   -6.3978    1.0000 </r>
       <r>   -6.3898    1.0000 </r>
       <r>   -6.3898    1.0000 </r>
       <r>   -6.3898    1.0000 </r>
       <r>   -6.3898    1.0000 </r>
       <r>   -6.3898    1.0000 </r>
       <r>   -6.3898    1.0000 </r>
       <r>   -6.3361    1.0000 </r>
       <r>   -6.3361    1.0000 </r>
       <r>   -6.3260    1.0000 </r>
       <r>   -6.3260    1.0000 </r>
       <r>   -6.3260    1.0000 </r>
       <r>   -6.3260    1.0000 </r>
       <r>   -6.3260    1.0000 </r>
       <r>   -6.3260    1.0000 </r>
       <r>   -6.3007    1.0000 </r>
       <r>   -6.3007    1.0000 </r>
       <r>   -6.3007    1.0000 </r>
       <r>   -6.3007    1.0000 </r>
       <r>   -6.3007    1.0000 </r>
       <r>   -6.3007    1.0000 </r>
       <r>   -6.3007    1.0000 </r>
       <r>   -6.3007    1.0000 </r>
       <r>   -6.3007    1.0000 </r>
       <r>   -6.3007    1.0000 </r>
       <r>   -6.3007    1.0000 </r>
       <r>   -6.3007    1.0000 </r>
       <r>   -6.2802    1.0000 </r>
       <r>   -6.2802    1.0000 </r>
       <r>   -6.2802    1.0000 </r>
       <r>   -6.2802    1.0000 </r>
       <r>   -6.2802    1.0000 </r>
       <r>   -6.2802    1.0000 </r>
       <r>   -6.2462    1.0000 </r>
       <r>   -6.2462    1.0000 </r>
       <r>   -6.2462    1.0000 </r>
       <r>   -6.2462    1.0000 </r>
       <r>   -6.2347    1.0000 </r>
       <r>   -6.2347    1.0000 </r>
       <r>   -6.2275    1.0000 </r>
       <r>   -6.2275    1.0000 </r>
       <r>   -6.2275    1.0000 </r>
       <r>   -6.2275    1.0000 </r>
       <r>   -6.2188    1.0000 </r>
       <r>   -6.2188    1.0000 </r>
       <r>   -6.2182    1.0000 </r>
       <r>   -6.2182    1.0000 </r>
       <r>   -6.2182    1.0000 </r>
       <r>   -6.2182    1.0000 </r>
       <r>   -6.1999    1.0000 </r>
       <r>   -6.1999    1.0000 </r>
       <r>   -6.1999    1.0000 </r>
       <r>   -6.1999    1.0000 </r>
       <r>   -6.1999    1.0000 </r>
       <r>   -6.1999    1.0000 </r>
       <r>   -6.1860    1.0000 </r>
       <r>   -6.1860    1.0000 </r>
       <r>   -6.1860    1.0000 </r>
       <r>   -6.1860    1.0000 </r>
       <r>   -6.1730    1.0000 </r>
       <r>   -6.1730    1.0000 </r>
       <r>   -6.1730    1.0000 </r>
       <r>   -6.1730    1.0000 </r>
       <r>   -6.1730    1.0000 </r>
       <r>   -6.1730    1.0000 </r>
       <r>   -6.1673    1.0000 </r>
       <r>   -6.1673    1.0000 </r>
       <r>   -6.1673    1.0000 </r>
       <r>   -6.1673    1.0000 </r>
       <r>   -6.1673    1.0000 </r>
       <r>   -6.1673    1.0000 </r>
       <r>   -6.1673    1.0000 </r>
       <r>   -6.1673    1.0000 </r>
       <r>   -6.1673    1.0000 </r>
       <r>   -6.1673    1.0000 </r>
       <r>   -6.1673    1.0000 </r>
       <r>   -6.1673    1.0000 </r>
       <r>   -6.1631    1.0000 </r>
       <r>   -6.1631    1.0000 </r>
       <r>   -6.1474    1.0000 </r>
       <r>   -6.1474    1.0000 </r>
       <r>   -6.1237    1.0000 </r>
       <r>   -6.1237    1.0000 </r>
       <r>   -6.1237    1.0000 </r>
       <r>   -6.1237    1.0000 </r>
       <r>   -6.1237    1.0000 </r>
       <r>   -6.1237    1.0000 </r>
       <r>   -5.9995    1.0000 </r>
       <r>   -5.9995    1.0000 </r>
       <r>   -5.9995    1.0000 </r>
       <r>   -5.9995    1.0000 </r>
       <r>   -5.9995    1.0000 </r>
       <r>   -5.9995    1.0000 </r>
       <r>   -5.9995    1.0000 </r>
       <r>   -5.9995    1.0000 </r>
       <r>   -5.9995    1.0000 </r>
       <r>   -5.9995    1.0000 </r>
       <r>   -5.9995    1.0000 </r>
       <r>   -5.9995    1.0000 </r>
       <r>   -5.8207    1.0000 </r>
       <r>   -5.6857    1.0000 </r>
       <r>   -5.6857    1.0000 </r>
       <r>   -5.6857    1.0000 </r>
       <r>   -5.6857    1.0000 </r>
       <r>   -5.6698    1.0000 </r>
       <r>   -5.6698    1.0000 </r>
       <r>   -5.6698    1.0000 </r>
       <r>   -5.6698    1.0000 </r>
       <r>   -5.6523    1.0000 </r>
       <r>   -5.6523    1.0000 </r>
       <r>   -5.6523    1.0000 </r>
       <r>   -5.6523    1.0000 </r>
       <r>   -5.6523    1.0000 </r>
       <r>   -5.6523    1.0000 </r>
       <r>   -3.2948    1.0000 </r>
       <r>   -2.9629    1.0000 </r>
       <r>   -2.9629    1.0000 </r>
       <r>   -2.9629    1.0000 </r>
       <r>   -2.9629    1.0000 </r>
       <r>   -2.8821    1.0000 </r>
       <r>   -2.8821    1.0000 </r>
       <r>   -2.8821    1.0000 </r>
       <r>   -2.8821    1.0000 </r>
       <r>   -2.8821    1.0000 </r>
       <r>   -2.8821    1.0000 </r>
       <r>   -2.6402    1.0000 </r>
       <r>   -2.6402    1.0000 </r>
       <r>   -2.6402    1.0000 </r>
       <r>   -2.6402    1.0000 </r>
       <r>   -2.4702    1.0000 </r>
       <r>   -2.4702    1.0000 </r>
       <r>   -2.4702    1.0000 </r>
       <r>   -2.4702    1.0000 </r>
       <r>   -2.4702    1.0000 </r>
       <r>   -2.4702    1.0000 </r>
       <r>   -2.4702    1.0000 </r>
       <r>   -2.4702    1.0000 </r>
       <r>   -2.4702    1.0000 </r>
       <r>   -2.4702    1.0000 </r>
       <r>   -2.4702    1.0000 </r>
       <r>   -2.4702    1.0000 </r>
       <r>   -2.0186    1.0000 </r>
       <r>   -2.0186    1.0000 </r>
       <r>   -1.9190    1.0000 </r>
       <r>   -1.9190    1.0000 </r>
       <r>   -1.9190    1.0000 </r>
       <r>   -1.9190    1.0000 </r>
       <r>   -1.9190    1.0000 </r>
       <r>   -1.9190    1.0000 </r>
       <r>   -1.5027    1.0000 </r>
       <r>   -1.5027    1.0000 </r>
       <r>   -1.5027    1.0000 </r>
       <r>   -1.5027    1.0000 </r>
       <r>   -1.5027    1.0000 </r>
       <r>   -1.5027    1.0000 </r>
       <r>   -1.4550    1.0000 </r>
       <r>   -1.4550    1.0000 </r>
       <r>   -1.3689    1.0000 </r>
       <r>   -1.3689    1.0000 </r>
       <r>   -1.3689    1.0000 </r>
       <r>   -1.3689    1.0000 </r>
       <r>   -0.7996    1.0000 </r>
       <r>   -0.7996    1.0000 </r>
       <r>   -0.7996    1.0000 </r>
       <r>   -0.7996    1.0000 </r>
       <r>   -0.5952    1.0000 </r>
       <r>   -0.5952    1.0000 </r>
       <r>   -0.5671    1.0000 </r>
       <r>   -0.5671    1.0000 </r>
       <r>   -0.5671    1.0000 </r>
       <r>   -0.5671    1.0000 </r>
       <r>   -0.5671    1.0000 </r>
       <r>   -0.5671    1.0000 </r>
       <r>   -0.3375    1.0000 </r>
       <r>   -0.3375    1.0000 </r>
       <r>   -0.3375    1.0000 </r>
       <r>   -0.3375    1.0000 </r>
       <r>   -0.3375    1.0000 </r>
       <r>   -0.3375    1.0000 </r>
       <r>   -0.3375    1.0000 </r>
       <r>   -0.3375    1.0000 </r>
       <r>   -0.3375    1.0000 </r>
       <r>   -0.3375    1.0000 </r>
       <r>   -0.3375    1.0000 </r>
       <r>   -0.3375    1.0000 </r>
       <r>   -0.0798    1.0000 </r>
       <r>   -0.0798    1.0000 </r>
       <r>   -0.0798    1.0000 </r>
       <r>   -0.0798    1.0000 </r>
       <r>   -0.0798    1.0000 </r>
       <r>   -0.0798    1.0000 </r>
       <r>   -0.0798    1.0000 </r>
       <r>   -0.0798    1.0000 </r>
       <r>   -0.0798    1.0000 </r>
       <r>   -0.0798    1.0000 </r>
       <r>   -0.0798    1.0000 </r>
       <r>   -0.0798    1.0000 </r>
       <r>   -0.0719    1.0000 </r>
       <r>   -0.0719    1.0000 </r>
       <r>   -0.0719    1.0000 </r>
       <r>   -0.0719    1.0000 </r>
       <r>    0.2103    1.0000 </r>
       <r>    0.2103    1.0000 </r>
       <r>    0.2103    1.0000 </r>
       <r>    0.2103    1.0000 </r>
       <r>    0.2103    1.0000 </r>
       <r>    0.2103    1.0000 </r>
       <r>    0.2828    1.0000 </r>
       <r>    0.2828    1.0000 </r>
       <r>    0.4665    1.0000 </r>
       <r>    0.4665    1.0000 </r>
       <r>    0.4665    1.0000 </r>
       <r>    0.4665    1.0000 </r>
       <r>    0.4665    1.0000 </r>
       <r>    0.4665    1.0000 </r>
       <r>    0.6395    1.0000 </r>
       <r>    0.6395    1.0000 </r>
       <r>    0.6395    1.0000 </r>
       <r>    0.6395    1.0000 </r>
       <r>    0.9743    1.0000 </r>
       <r>    1.0227    1.0000 </r>
       <r>    1.0227    1.0000 </r>
       <r>    2.0220    0.0000 </r>
       <r>    3.6263    0.0000 </r>
       <r>    3.6879    0.0000 </r>
       <r>    3.6879    0.0000 </r>
       <r>    4.2803    0.0000 </r>
       <r>    4.2803    0.0000 </r>
       <r>    4.2803    0.0000 </r>
       <r>    4.2803    0.0000 </r>
       <r>    4.2803    0.0000 </r>
       <r>    4.2803    0.0000 </r>
       <r>    4.5630    0.0000 </r>
       <r>    4.5630    0.0000 </r>
       <r>    4.5630    0.0000 </r>
       <r>    4.5630    0.0000 </r>
       <r>    4.5630    0.0000 </r>
       <r>    4.5630    0.0000 </r>
       <r>    4.5630    0.0000 </r>
       <r>    4.5630    0.0000 </r>
       <r>    4.5630    0.0000 </r>
       <r>    4.5630    0.0000 </r>
       <r>    4.5630    0.0000 </r>
       <r>    4.5630    0.0000 </r>
       <r>    4.8653    0.0000 </r>
       <r>    4.8653    0.0000 </r>
       <r>    4.8653    0.0000 </r>
       <r>    4.8653    0.0000 </r>
       <r>    4.8653    0.0000 </r>
       <r>    4.8653    0.0000 </r>
       <r>    5.2382    0.0000 </r>
       <r>    5.2382    0.0000 </r>
       <r>    5.2382    0.0000 </r>
       <r>    5.2382    0.0000 </r>
       <r>    5.5549    0.0000 </r>
       <r>    5.5549    0.0000 </r>
       <r>    5.9625    0.0000 </r>
       <r>    5.9625    0.0000 </r>
       <r>    5.9625    0.0000 </r>
       <r>    5.9625    0.0000 </r>
       <r>    6.2522    0.0000 </r>
       <r>    6.2522    0.0000 </r>
       <r>    6.2522    0.0000 </r>
       <r>    6.2522    0.0000 </r>
       <r>    6.2522    0.0000 </r>
       <r>    6.2522    0.0000 </r>
       <r>    6.3076    0.0000 </r>
       <r>    6.3076    0.0000 </r>
       <r>    6.3076    0.0000 </r>
       <r>    6.3076    0.0000 </r>
       <r>    6.3076    0.0000 </r>
       <r>    6.3076    0.0000 </r>
       <r>    6.3076    0.0000 </r>
       <r>    6.3076    0.0000 </r>
       <r>    6.3076    0.0000 </r>
       <r>    6.3076    0.0000 </r>
       <r>    6.3076    0.0000 </r>
       <r>    6.3076    0.0000 </r>
       <r>    6.9831    0.0000 </r>
       <r>    6.9831    0.0000 </r>
       <r>    6.9831    0.0000 </r>
       <r>    6.9831    0.0000 </r>
       <r>    7.0364    0.0000 </r>
       <r>    7.0364    0.0000 </r>
       <r>    7.0732    0.0000 </r>
       <r>    7.0732    0.0000 </r>
       <r>    7.0732    0.0000 </r>
       <r>    7.0732    0.0000 </r>
       <r>    7.0732    0.0000 </r>
       <r>    7.0732    0.0000 </r>
       <r>    7.3442    0.0000 </r>
       <r>    7.3442    0.0000 </r>
       <r>    7.3442    0.0000 </r>
       <r>    7.3442    0.0000 </r>
       <r>    7.3676    0.0000 </r>
       <r>    7.3676    0.0000 </r>
       <r>    7.6761    0.0000 </r>
       <r>    7.7197    0.0000 </r>
       <r>    7.7197    0.0000 </r>
       <r>    7.7197    0.0000 </r>
       <r>    7.7197    0.0000 </r>
       <r>    7.9838    0.0000 </r>
       <r>    7.9838    0.0000 </r>
       <r>    7.9838    0.0000 </r>
       <r>    7.9838    0.0000 </r>
       <r>    7.9838    0.0000 </r>
       <r>    7.9838    0.0000 </r>
       <r>    8.0005    0.0000 </r>
       <r>    8.0006    0.0000 </r>
       <r>    8.2768    0.0000 </r>
       <r>    8.2855    0.0000 </r>
       <r>    8.2902    0.0000 </r>
       <r>    8.2989    0.0000 </r>
       <r>    8.3144    0.0000 </r>
      </set>
     </set>
    </set>
   </array>
  </eigenvalues>
  <separator name="orbital magnetization" >
   <v name="MAGDIPOLOUT">      0.00000000      0.00000000      0.00000000</v>
  </separator>
  <dos>
   <i name="efermi">      1.28244170 </i>
   <total>
    <array>
     <dimension dim="1">gridpoints</dimension>
     <dimension dim="2">spin</dimension>
     <field>energy</field>
     <field>total</field>
     <field>integrated</field>
     <set>
      <set comment="spin 1">
       <r>   -12.1705     0.0000     0.0000 </r>
       <r>   -12.0990     0.0000     0.0000 </r>
       <r>   -12.0275     0.0000     0.0000 </r>
       <r>   -11.9559     0.0000     0.0000 </r>
       <r>   -11.8844     0.0000     0.0000 </r>
       <r>   -11.8128     0.0000     0.0000 </r>
       <r>   -11.7413     0.0000     0.0000 </r>
       <r>   -11.6698     0.0000     0.0000 </r>
       <r>   -11.5982     0.0000     0.0000 </r>
       <r>   -11.5267     0.0000     0.0000 </r>
       <r>   -11.4552     0.0000     0.0000 </r>
       <r>   -11.3836     0.0000     0.0000 </r>
       <r>   -11.3121     0.0130     0.0009 </r>
       <r>   -11.2406     2.7535     0.1979 </r>
       <r>   -11.1690    18.7352     1.5381 </r>
       <r>   -11.0975     6.4029     1.9961 </r>
       <r>   -11.0260     5.7390     2.4067 </r>
       <r>   -10.9544    49.5179     5.9489 </r>
       <r>   -10.8829   120.4529    14.5655 </r>
       <r>   -10.8114   105.2155    22.0920 </r>
       <r>   -10.7398   266.4212    41.1503 </r>
       <r>   -10.6683   268.4380    60.3529 </r>
       <r>   -10.5968   157.2516    71.6018 </r>
       <r>   -10.5252     5.5606    71.9996 </r>
       <r>   -10.4537     0.0058    72.0000 </r>
       <r>   -10.3822     0.0000    72.0000 </r>
       <r>   -10.3106     0.0000    72.0000 </r>
       <r>   -10.2391     0.0000    72.0000 </r>
       <r>   -10.1676     0.0000    72.0000 </r>
       <r>   -10.0960     0.0000    72.0000 </r>
       <r>   -10.0245     0.0000    72.0000 </r>
       <r>    -9.9529     0.0000    72.0000 </r>
       <r>    -9.8814     0.0000    72.0000 </r>
       <r>    -9.8099     0.0000    72.0000 </r>
       <r>    -9.7383     0.0000    72.0000 </r>
       <r>    -9.6668     0.0000    72.0000 </r>
       <r>    -9.5953     0.0000    72.0000 </r>
       <r>    -9.5237     0.0000    72.0000 </r>
       <r>    -9.4522     0.0000    72.0000 </r>
       <r>    -9.3807     0.0000    72.0000 </r>
       <r>    -9.3091     0.0000    72.0000 </r>
       <r>    -9.2376     0.0000    72.0000 </r>
       <r>    -9.1661     0.0000    72.0000 </r>
       <r>    -9.0945     0.0000    72.0000 </r>
       <r>    -9.0230     0.0000    72.0000 </r>
       <r>    -8.9515     0.0000    72.0000 </r>
       <r>    -8.8799     0.0000    72.0000 </r>
       <r>    -8.8084     0.0000    72.0000 </r>
       <r>    -8.7369     0.0000    72.0000 </r>
       <r>    -8.6653     0.0000    72.0000 </r>
       <r>    -8.5938     0.0000    72.0000 </r>
       <r>    -8.5223     0.0000    72.0000 </r>
       <r>    -8.4507     0.0000    72.0000 </r>
       <r>    -8.3792     0.0000    72.0000 </r>
       <r>    -8.3077     0.0000    72.0000 </r>
       <r>    -8.2361     0.0000    72.0000 </r>
       <r>    -8.1646     0.0000    72.0000 </r>
       <r>    -8.0931     0.0000    72.0000 </r>
       <r>    -8.0215     0.0000    72.0000 </r>
       <r>    -7.9500     0.0000    72.0000 </r>
       <r>    -7.8784     0.0000    72.0000 </r>
       <r>    -7.8069     0.0000    72.0000 </r>
       <r>    -7.7354     0.0000    72.0000 </r>
       <r>    -7.6638     0.0000    72.0000 </r>
       <r>    -7.5923     0.0000    72.0000 </r>
       <r>    -7.5208     0.0000    72.0000 </r>
       <r>    -7.4492     0.0000    72.0000 </r>
       <r>    -7.3777     0.0000    72.0000 </r>
       <r>    -7.3062     0.0000    72.0000 </r>
       <r>    -7.2346     0.0000    72.0000 </r>
       <r>    -7.1631     0.0000    72.0000 </r>
       <r>    -7.0916     0.0000    72.0000 </r>
       <r>    -7.0200     0.0000    72.0000 </r>
       <r>    -6.9485     0.0000    72.0000 </r>
       <r>    -6.8770     0.0000    72.0000 </r>
       <r>    -6.8054     0.0000    72.0000 </r>
       <r>    -6.7339     0.0993    72.0071 </r>
       <r>    -6.6624    14.7852    73.0648 </r>
       <r>    -6.5908   159.2744    84.4584 </r>
       <r>    -6.5193   505.5134   120.6200 </r>
       <r>    -6.4478   656.9622   167.6155 </r>
       <r>    -6.3762   602.1453   210.6897 </r>
       <r>    -6.3047   471.2915   244.4033 </r>
       <r>    -6.2332   597.9904   287.1803 </r>
       <r>    -6.1616   787.5056   343.5141 </r>
       <r>    -6.0901   444.1263   375.2845 </r>
       <r>    -6.0186   136.7311   385.0655 </r>
       <r>    -5.9470   213.6626   400.3497 </r>
       <r>    -5.8755    24.6883   402.1158 </r>
       <r>    -5.8039    17.5070   403.3681 </r>
       <r>    -5.7324    25.3246   405.1797 </r>
       <r>    -5.6609   203.1739   419.7137 </r>
       <r>    -5.5893   163.8194   431.4324 </r>
       <r>    -5.5178     7.9214   431.9991 </r>
       <r>    -5.4463     0.0131   432.0000 </r>
       <r>    -5.3747     0.0000   432.0000 </r>
       <r>    -5.3032     0.0000   432.0000 </r>
       <r>    -5.2317     0.0000   432.0000 </r>
       <r>    -5.1601     0.0000   432.0000 </r>
       <r>    -5.0886     0.0000   432.0000 </r>
       <r>    -5.0171     0.0000   432.0000 </r>
       <r>    -4.9455     0.0000   432.0000 </r>
       <r>    -4.8740     0.0000   432.0000 </r>
       <r>    -4.8025     0.0000   432.0000 </r>
       <r>    -4.7309     0.0000   432.0000 </r>
       <r>    -4.6594     0.0000   432.0000 </r>
       <r>    -4.5879     0.0000   432.0000 </r>
       <r>    -4.5163     0.0000   432.0000 </r>
       <r>    -4.4448     0.0000   432.0000 </r>
       <r>    -4.3733     0.0000   432.0000 </r>
       <r>    -4.3017     0.0000   432.0000 </r>
       <r>    -4.2302     0.0000   432.0000 </r>
       <r>    -4.1587     0.0000   432.0000 </r>
       <r>    -4.0871     0.0000   432.0000 </r>
       <r>    -4.0156     0.0000   432.0000 </r>
       <r>    -3.9440     0.0000   432.0000 </r>
       <r>    -3.8725     0.0000   432.0000 </r>
       <r>    -3.8010     0.0000   432.0000 </r>
       <r>    -3.7294     0.0000   432.0000 </r>
       <r>    -3.6579     0.0000   432.0000 </r>
       <r>    -3.5864     0.0000   432.0000 </r>
       <r>    -3.5148     0.0000   432.0000 </r>
       <r>    -3.4433     0.0004   432.0000 </r>
       <r>    -3.3718     0.4120   432.0295 </r>
       <r>    -3.3002    11.8618   432.8780 </r>
       <r>    -3.2287    14.8246   433.9385 </r>
       <r>    -3.1572     0.8585   433.9999 </r>
       <r>    -3.0856     0.0303   434.0021 </r>
       <r>    -3.0141     8.2308   434.5909 </r>
       <r>    -2.9426    79.2532   440.2602 </r>
       <r>    -2.8710   128.2293   449.4330 </r>
       <r>    -2.7995    62.2061   453.8829 </r>
       <r>    -2.7280     2.3658   454.0521 </r>
       <r>    -2.6564    35.4062   456.5849 </r>
       <r>    -2.5849    69.3119   461.5431 </r>
       <r>    -2.5134    43.5754   464.6602 </r>
       <r>    -2.4418   227.3858   480.9262 </r>
       <r>    -2.3703    70.1349   485.9432 </r>
       <r>    -2.2988     0.7933   486.0000 </r>
       <r>    -2.2272     0.0002   486.0000 </r>
       <r>    -2.1557     0.0030   486.0002 </r>
       <r>    -2.0842     1.7817   486.1277 </r>
       <r>    -2.0126    30.6266   488.3185 </r>
       <r>    -1.9411    67.4048   493.1403 </r>
       <r>    -1.8695   110.2940   501.0301 </r>
       <r>    -1.7980    13.5062   501.9963 </r>
       <r>    -1.7265     0.0520   502.0000 </r>
       <r>    -1.6549     0.0014   502.0001 </r>
       <r>    -1.5834     1.8918   502.1354 </r>
       <r>    -1.5119    67.8606   506.9898 </r>
       <r>    -1.4403   130.8569   516.3506 </r>
       <r>    -1.3688    78.7229   521.9820 </r>
       <r>    -1.2973    53.7841   525.8294 </r>
       <r>    -1.2257     2.3817   525.9998 </r>
       <r>    -1.1542     0.0029   526.0000 </r>
       <r>    -1.0827     0.0000   526.0000 </r>
       <r>    -1.0111     0.0000   526.0000 </r>
       <r>    -0.9396     0.0042   526.0003 </r>
       <r>    -0.8681     2.9436   526.2109 </r>
       <r>    -0.7965    56.8047   530.2744 </r>
       <r>    -0.7250    50.1368   533.8609 </r>
       <r>    -0.6535     5.9443   534.2861 </r>
       <r>    -0.5819    88.7259   540.6331 </r>
       <r>    -0.5104   121.3532   549.3140 </r>
       <r>    -0.4389    10.2615   550.0481 </r>
       <r>    -0.3673    66.2856   554.7898 </r>
       <r>    -0.2958   228.6305   571.1448 </r>
       <r>    -0.2243    39.6947   573.9843 </r>
       <r>    -0.1527     8.0452   574.5598 </r>
       <r>    -0.0812   199.1080   588.8029 </r>
       <r>    -0.0097   228.1114   605.1207 </r>
       <r>     0.0619    12.2746   605.9988 </r>
       <r>     0.1334     2.4990   606.1776 </r>
       <r>     0.2050    72.0179   611.3293 </r>
       <r>     0.2765   112.1244   619.3501 </r>
       <r>     0.3480    35.2879   621.8744 </r>
       <r>     0.4196    17.2400   623.1077 </r>
       <r>     0.4911   111.5066   631.0842 </r>
       <r>     0.5626    41.8747   634.0797 </r>
       <r>     0.6342    48.1126   637.5214 </r>
       <r>     0.7057    59.1909   641.7556 </r>
       <r>     0.7772     3.4109   641.9996 </r>
       <r>     0.8488     0.0108   642.0004 </r>
       <r>     0.9203     1.8670   642.1339 </r>
       <r>     0.9918    28.1054   644.1444 </r>
       <r>     1.0634    46.7412   647.4881 </r>
       <r>     1.1349     7.1144   647.9970 </r>
       <r>     1.2064     0.0422   648.0000 </r>
       <r>     1.2780     0.0000   648.0000 </r>
       <r>     1.3495     0.0000   648.0000 </r>
       <r>     1.4210     0.0000   648.0000 </r>
       <r>     1.4926     0.0000   648.0000 </r>
       <r>     1.5641     0.0000   648.0000 </r>
       <r>     1.6356     0.0000   648.0000 </r>
       <r>     1.7072     0.0000   648.0000 </r>
       <r>     1.7787     0.0000   648.0000 </r>
       <r>     1.8502     0.0000   648.0000 </r>
       <r>     1.9218     0.0639   648.0046 </r>
       <r>     1.9933     5.7575   648.4164 </r>
       <r>     2.0649    18.9776   649.7740 </r>
       <r>     2.1364     3.1426   649.9988 </r>
       <r>     2.2079     0.0171   650.0000 </r>
       <r>     2.2795     0.0000   650.0000 </r>
       <r>     2.3510     0.0000   650.0000 </r>
       <r>     2.4225     0.0000   650.0000 </r>
       <r>     2.4941     0.0000   650.0000 </r>
       <r>     2.5656     0.0000   650.0000 </r>
       <r>     2.6371     0.0000   650.0000 </r>
       <r>     2.7087     0.0000   650.0000 </r>
       <r>     2.7802     0.0000   650.0000 </r>
       <r>     2.8517     0.0000   650.0000 </r>
       <r>     2.9233     0.0000   650.0000 </r>
       <r>     2.9948     0.0000   650.0000 </r>
       <r>     3.0663     0.0000   650.0000 </r>
       <r>     3.1379     0.0000   650.0000 </r>
       <r>     3.2094     0.0000   650.0000 </r>
       <r>     3.2809     0.0000   650.0000 </r>
       <r>     3.3525     0.0000   650.0000 </r>
       <r>     3.4240     0.0000   650.0000 </r>
       <r>     3.4955     0.0030   650.0002 </r>
       <r>     3.5671     1.3260   650.0951 </r>
       <r>     3.6386    21.0142   651.5983 </r>
       <r>     3.7101    46.4833   654.9235 </r>
       <r>     3.7817    14.8253   655.9840 </r>
       <r>     3.8532     0.2236   656.0000 </r>
       <r>     3.9247     0.0001   656.0000 </r>
       <r>     3.9963     0.0000   656.0000 </r>
       <r>     4.0678     0.0000   656.0000 </r>
       <r>     4.1394     0.0056   656.0004 </r>
       <r>     4.2109     4.1603   656.2980 </r>
       <r>     4.2824    83.7555   662.2894 </r>
       <r>     4.3540    76.7113   667.7769 </r>
       <r>     4.4255     3.1319   668.0010 </r>
       <r>     4.4970    10.3864   668.7440 </r>
       <r>     4.5686   178.2762   681.4969 </r>
       <r>     4.6401   141.9217   691.6492 </r>
       <r>     4.7116     4.9012   691.9998 </r>
       <r>     4.7832     1.6928   692.1209 </r>
       <r>     4.8547    62.3833   696.5834 </r>
       <r>     4.9262    96.5574   703.4906 </r>
       <r>     4.9978     7.1059   703.9989 </r>
       <r>     5.0693     0.0152   704.0000 </r>
       <r>     5.1408     0.3279   704.0235 </r>
       <r>     5.2124    25.6323   705.8571 </r>
       <r>     5.2839    74.8836   711.2138 </r>
       <r>     5.3554    10.9389   711.9963 </r>
       <r>     5.4270     0.0596   712.0006 </r>
       <r>     5.4985     3.0837   712.2212 </r>
       <r>     5.5700    34.1258   714.6624 </r>
       <r>     5.6416    18.3011   715.9715 </r>
       <r>     5.7131     0.3980   716.0000 </r>
       <r>     5.7846     0.0002   716.0000 </r>
       <r>     5.8562     0.1474   716.0105 </r>
       <r>     5.9277    18.0327   717.3005 </r>
       <r>     5.9992    76.9541   722.8054 </r>
       <r>     6.0708    16.5772   723.9912 </r>
       <r>     6.1423     0.2819   724.0114 </r>
       <r>     6.2139    24.5627   725.7685 </r>
       <r>     6.2854   202.8737   740.2809 </r>
       <r>     6.3569   248.0984   758.0285 </r>
       <r>     6.4285    27.4540   759.9925 </r>
       <r>     6.5000     0.1054   760.0000 </r>
       <r>     6.5715     0.0000   760.0000 </r>
       <r>     6.6431     0.0000   760.0000 </r>
       <r>     6.7146     0.0000   760.0000 </r>
       <r>     6.7861     0.0000   760.0000 </r>
       <r>     6.8577     0.0217   760.0016 </r>
       <r>     6.9292     7.1702   760.5145 </r>
       <r>     7.0007    82.1999   766.3946 </r>
       <r>     7.0723   151.0550   777.2003 </r>
       <r>     7.1438    91.1345   783.7195 </r>
       <r>     7.2153     3.9316   784.0008 </r>
       <r>     7.2869     6.4968   784.4655 </r>
       <r>     7.3584    89.1398   790.8421 </r>
       <r>     7.4299    69.0750   795.7833 </r>
       <r>     7.5015     3.0243   795.9997 </r>
       <r>     7.5730     0.0561   796.0037 </r>
       <r>     7.6445     7.0160   796.5056 </r>
       <r>     7.7161    68.5853   801.4118 </r>
       <r>     7.7876    61.0483   805.7788 </r>
       <r>     7.8591     3.1244   806.0023 </r>
       <r>     7.9307    12.4737   806.8946 </r>
       <r>     8.0022   133.7400   816.4617 </r>
       <r>     8.0738    75.4298   821.8575 </r>
       <r>     8.1453     1.9949   822.0002 </r>
       <r>     8.2168     2.8737   822.2058 </r>
       <r>     8.2884    60.1133   826.5060 </r>
       <r>     8.3599    71.4163   831.6147 </r>
       <r>     8.4314     5.3692   831.9988 </r>
       <r>     8.5030     0.0171   832.0000 </r>
       <r>     8.5745     0.0000   832.0000 </r>
       <r>     8.6460     0.0000   832.0000 </r>
       <r>     8.7176     0.0000   832.0000 </r>
       <r>     8.7891     0.0000   832.0000 </r>
       <r>     8.8606     0.0000   832.0000 </r>
       <r>     8.9322     0.0000   832.0000 </r>
       <r>     9.0037     0.0000   832.0000 </r>
       <r>     9.0752     0.0000   832.0000 </r>
       <r>     9.1468     0.0000   832.0000 </r>
       <r>     9.2183     0.0000   832.0000 </r>
       <r>     9.2898     0.0000   832.0000 </r>
      </set>
     </set>
    </array>
   </total>
  </dos>
 </calculation>
 <structure name="finalpos" >
  <crystal>
   <varray name="basis" >
    <v>       6.25325715     -10.83095910       0.00000000 </v>
    <v>       6.25325715      10.83095910       0.00000000 </v>
    <v>       0.00000000       0.00000000      13.55923482 </v>
   </varray>
   <i name="volume">   1836.70065798 </i>
   <varray name="rec_basis" >
    <v>       0.07995833      -0.04616396       0.00000000 </v>
    <v>       0.07995833       0.04616396       0.00000000 </v>
    <v>       0.00000000       0.00000000       0.07375047 </v>
   </varray>
  </crystal>
  <varray name="positions" >
   <v>       0.22222222       0.11111111       0.25011218 </v>
   <v>       0.22222222       0.77777778       0.75011218 </v>
   <v>       0.11111111       0.88888889       0.50011218 </v>
   <v>       0.55555556       0.77777778       0.25011218 </v>
   <v>       0.44444444       0.88888889       0.50011218 </v>
   <v>       0.55555556       0.11111111       0.25011218 </v>
   <v>       0.44444444       0.22222222       0.00011218 </v>
   <v>       0.88888889       0.44444444       0.75011218 </v>
   <v>       0.77777778       0.55555556       0.00011218 </v>
   <v>       0.55555556       0.11111111       0.75011218 </v>
   <v>       0.44444444       0.22222222       0.50011218 </v>
   <v>       0.55555556       0.44444444       0.25011218 </v>
   <v>       0.44444444       0.55555556       0.00011218 </v>
   <v>       0.77777778       0.22222222       0.50011218 </v>
   <v>       0.88888889       0.11111111       0.75011218 </v>
   <v>       0.88888889       0.44444444       0.25011218 </v>
   <v>       0.55555556       0.44444444       0.75011218 </v>
   <v>       0.77777778       0.55555556       0.50011218 </v>
   <v>       0.22222222       0.77777778       0.25011218 </v>
   <v>       0.11111111       0.22222222       0.00011218 </v>
   <v>       0.77777778       0.88888889       0.50011218 </v>
   <v>       0.88888889       0.77777778       0.75011218 </v>
   <v>       0.22222222       0.11111111       0.75011218 </v>
   <v>       0.11111111       0.22222222       0.50011218 </v>
   <v>       0.55555556       0.77777778       0.75011218 </v>
   <v>       0.11111111       0.88888889       0.00011218 </v>
   <v>       0.88888889       0.11111111       0.25011218 </v>
   <v>       0.11111111       0.55555556       0.00011218 </v>
   <v>       0.77777778       0.88888889       0.00011218 </v>
   <v>       0.88888889       0.77777778       0.25011218 </v>
   <v>       0.22222222       0.44444444       0.75011218 </v>
   <v>       0.11111111       0.55555556       0.50011218 </v>
   <v>       0.77777778       0.22222222       0.00011218 </v>
   <v>       0.44444444       0.88888889       0.00011218 </v>
   <v>       0.22222222       0.44444444       0.25011218 </v>
   <v>       0.44444444       0.55555556       0.50011218 </v>
   <v>       0.88888889       0.11111111       0.43838781 </v>
   <v>       0.77777778       0.22222222       0.18838781 </v>
   <v>       0.88888889       0.44444444       0.43838781 </v>
   <v>       0.77777778       0.22222222       0.68838781 </v>
   <v>       0.77777778       0.55555556       0.18838781 </v>
   <v>       0.88888889       0.44444444       0.93838781 </v>
   <v>       0.77777778       0.55555556       0.68838781 </v>
   <v>       0.88888889       0.77777778       0.43838781 </v>
   <v>       0.77777778       0.88888889       0.18838781 </v>
   <v>       0.88888889       0.11111111       0.93838781 </v>
   <v>       0.44444444       0.88888889       0.68838781 </v>
   <v>       0.44444444       0.55555556       0.18838781 </v>
   <v>       0.44444444       0.88888889       0.18838781 </v>
   <v>       0.22222222       0.11111111       0.43838781 </v>
   <v>       0.11111111       0.22222222       0.18838781 </v>
   <v>       0.22222222       0.11111111       0.93838781 </v>
   <v>       0.11111111       0.22222222       0.68838781 </v>
   <v>       0.22222222       0.44444444       0.43838781 </v>
   <v>       0.11111111       0.55555556       0.18838781 </v>
   <v>       0.22222222       0.44444444       0.93838781 </v>
   <v>       0.11111111       0.55555556       0.68838781 </v>
   <v>       0.22222222       0.77777778       0.43838781 </v>
   <v>       0.11111111       0.88888889       0.18838781 </v>
   <v>       0.22222222       0.77777778       0.93838781 </v>
   <v>       0.11111111       0.88888889       0.68838781 </v>
   <v>       0.55555556       0.11111111       0.43838781 </v>
   <v>       0.44444444       0.22222222       0.18838781 </v>
   <v>       0.55555556       0.11111111       0.93838781 </v>
   <v>       0.44444444       0.22222222       0.68838781 </v>
   <v>       0.55555556       0.44444444       0.43838781 </v>
   <v>       0.88888889       0.77777778       0.93838781 </v>
   <v>       0.55555556       0.44444444       0.93838781 </v>
   <v>       0.44444444       0.55555556       0.68838781 </v>
   <v>       0.55555556       0.77777778       0.43838781 </v>
   <v>       0.55555556       0.77777778       0.93838781 </v>
   <v>       0.77777778       0.88888889       0.68838781 </v>
  </varray>
 </structure>
</modeling>
