<?xml version="1.0" encoding="ISO-8859-1"?>
<modeling>
 <generator>
  <i name="program" type="string">vasp </i>
  <i name="version" type="string">6.4.2  </i>
  <i name="subversion" type="string">20Jul23 (build Sep 17 2025 15:35:10) complex                          parallel </i>
  <i name="platform" type="string">LinuxIFC </i>
  <i name="date" type="string">2025 10 01 </i>
  <i name="time" type="string">23:07:12 </i>
 </generator>
 <incar>
  <i type="int" name="ISTART">     0</i>
  <i type="string" name="PREC">Accurate</i>
  <i type="int" name="ICHARG">     2</i>
  <i type="int" name="NELM">   100</i>
  <i name="EDIFF">      0.00000100</i>
  <i name="ENCUT">    400.00000000</i>
  <i type="logical" name="LREAL"> F  </i>
  <i type="int" name="ISMEAR">     0</i>
  <i name="SIGMA">      0.05000000</i>
  <i type="logical" name="LWAVE"> F  </i>
  <i type="logical" name="LCHARG"> F  </i>
  <i type="string" name="GGA">PS</i>
 </incar>
 <primitive_cell>
  <structure name="primitive_cell" >
   <crystal>
    <varray name="basis" >
     <v>       6.25325715     -10.83095910       0.00000000 </v>
     <v>       6.25325715      10.83095910       0.00000000 </v>
     <v>       0.00000000       0.00000000      13.55923482 </v>
    </varray>
    <i name="volume">   1836.70065798 </i>
    <varray name="rec_basis" >
     <v>       0.07995833      -0.04616396       0.00000000 </v>
     <v>       0.07995833       0.04616396       0.00000000 </v>
     <v>       0.00000000       0.00000000       0.07375047 </v>
    </varray>
   </crystal>
   <varray name="positions" >
    <v>       0.22222222       0.11111111       0.25011218 </v>
    <v>       0.11111111       0.22222222       0.00011218 </v>
    <v>       0.22222222       0.11111111       0.43838781 </v>
    <v>       0.11111111       0.22222222       0.18838781 </v>
    <v>       0.22222222       0.11111111       0.75011218 </v>
    <v>       0.11111111       0.22222222       0.50011218 </v>
    <v>       0.22222222       0.11111111       0.93838781 </v>
    <v>       0.11111111       0.22222222       0.68838781 </v>
    <v>       0.22222222       0.44444444       0.25011218 </v>
    <v>       0.11111111       0.55555556       0.00011218 </v>
    <v>       0.22222222       0.44444444       0.43838781 </v>
    <v>       0.11111111       0.55555556       0.18838781 </v>
    <v>       0.22222222       0.44444444       0.75011218 </v>
    <v>       0.11111111       0.55555556       0.50011218 </v>
    <v>       0.22222222       0.44444444       0.93838781 </v>
    <v>       0.11111111       0.55555556       0.68838781 </v>
    <v>       0.22222222       0.77777778       0.25011218 </v>
    <v>       0.11111111       0.88888889       0.00011218 </v>
    <v>       0.22222222       0.77777778       0.43838781 </v>
    <v>       0.11111111       0.88888889       0.18838781 </v>
    <v>       0.22222222       0.77777778       0.75011218 </v>
    <v>       0.11111111       0.88888889       0.50011218 </v>
    <v>       0.22222222       0.77777778       0.93838781 </v>
    <v>       0.11111111       0.88888889       0.68838781 </v>
    <v>       0.55555556       0.11111111       0.25011218 </v>
    <v>       0.44444444       0.22222222       0.00011218 </v>
    <v>       0.55555556       0.11111111       0.43838781 </v>
    <v>       0.44444444       0.22222222       0.18838781 </v>
    <v>       0.55555556       0.11111111       0.75011218 </v>
    <v>       0.44444444       0.22222222       0.50011218 </v>
    <v>       0.55555556       0.11111111       0.93838781 </v>
    <v>       0.44444444       0.22222222       0.68838781 </v>
    <v>       0.55555556       0.44444444       0.25011218 </v>
    <v>       0.44444444       0.55555556       0.00011218 </v>
    <v>       0.55555556       0.44444444       0.43838781 </v>
    <v>       0.44444444       0.55555556       0.18838781 </v>
    <v>       0.55555556       0.44444444       0.75011218 </v>
    <v>       0.44444444       0.55555556       0.50011218 </v>
    <v>       0.55555556       0.44444444       0.93838781 </v>
    <v>       0.44444444       0.55555556       0.68838781 </v>
    <v>       0.55555556       0.77777778       0.25011218 </v>
    <v>       0.44444444       0.88888889       0.00011218 </v>
    <v>       0.55555556       0.77777778       0.43838781 </v>
    <v>       0.44444444       0.88888889       0.18838781 </v>
    <v>       0.55555556       0.77777778       0.75011218 </v>
    <v>       0.44444444       0.88888889       0.50011218 </v>
    <v>       0.55555556       0.77777778       0.93838781 </v>
    <v>       0.44444444       0.88888889       0.68838781 </v>
    <v>       0.88888889       0.11111111       0.25011218 </v>
    <v>       0.77777778       0.22222222       0.00011218 </v>
    <v>       0.88888889       0.11111111       0.43838781 </v>
    <v>       0.77777778       0.22222222       0.18838781 </v>
    <v>       0.88888889       0.11111111       0.75011218 </v>
    <v>       0.77777778       0.22222222       0.50011218 </v>
    <v>       0.88888889       0.11111111       0.93838781 </v>
    <v>       0.77777778       0.22222222       0.68838781 </v>
    <v>       0.88888889       0.44444444       0.25011218 </v>
    <v>       0.77777778       0.55555556       0.00011218 </v>
    <v>       0.88888889       0.44444444       0.43838781 </v>
    <v>       0.77777778       0.55555556       0.18838781 </v>
    <v>       0.88888889       0.44444444       0.75011218 </v>
    <v>       0.77777778       0.55555556       0.50011218 </v>
    <v>       0.88888889       0.44444444       0.93838781 </v>
    <v>       0.77777778       0.55555556       0.68838781 </v>
    <v>       0.88888889       0.77777778       0.25011218 </v>
    <v>       0.77777778       0.88888889       0.00011218 </v>
    <v>       0.88888889       0.77777778       0.43838781 </v>
    <v>       0.77777778       0.88888889       0.18838781 </v>
    <v>       0.88888889       0.77777778       0.75011218 </v>
    <v>       0.77777778       0.88888889       0.50011218 </v>
    <v>       0.88888889       0.77777778       0.93838781 </v>
    <v>       0.77777778       0.88888889       0.68838781 </v>
   </varray>
  </structure>
  <varray name="primitive_index" >
   <v type="int" >        1 </v>
   <v type="int" >        2 </v>
   <v type="int" >        3 </v>
   <v type="int" >        4 </v>
   <v type="int" >        5 </v>
   <v type="int" >        6 </v>
   <v type="int" >        7 </v>
   <v type="int" >        8 </v>
   <v type="int" >        9 </v>
   <v type="int" >       10 </v>
   <v type="int" >       11 </v>
   <v type="int" >       12 </v>
   <v type="int" >       13 </v>
   <v type="int" >       14 </v>
   <v type="int" >       15 </v>
   <v type="int" >       16 </v>
   <v type="int" >       17 </v>
   <v type="int" >       18 </v>
   <v type="int" >       19 </v>
   <v type="int" >       20 </v>
   <v type="int" >       21 </v>
   <v type="int" >       22 </v>
   <v type="int" >       23 </v>
   <v type="int" >       24 </v>
   <v type="int" >       25 </v>
   <v type="int" >       26 </v>
   <v type="int" >       27 </v>
   <v type="int" >       28 </v>
   <v type="int" >       29 </v>
   <v type="int" >       30 </v>
   <v type="int" >       31 </v>
   <v type="int" >       32 </v>
   <v type="int" >       33 </v>
   <v type="int" >       34 </v>
   <v type="int" >       35 </v>
   <v type="int" >       36 </v>
   <v type="int" >       37 </v>
   <v type="int" >       38 </v>
   <v type="int" >       39 </v>
   <v type="int" >       40 </v>
   <v type="int" >       41 </v>
   <v type="int" >       42 </v>
   <v type="int" >       43 </v>
   <v type="int" >       44 </v>
   <v type="int" >       45 </v>
   <v type="int" >       46 </v>
   <v type="int" >       47 </v>
   <v type="int" >       48 </v>
   <v type="int" >       49 </v>
   <v type="int" >       50 </v>
   <v type="int" >       51 </v>
   <v type="int" >       52 </v>
   <v type="int" >       53 </v>
   <v type="int" >       54 </v>
   <v type="int" >       55 </v>
   <v type="int" >       56 </v>
   <v type="int" >       57 </v>
   <v type="int" >       58 </v>
   <v type="int" >       59 </v>
   <v type="int" >       60 </v>
   <v type="int" >       61 </v>
   <v type="int" >       62 </v>
   <v type="int" >       63 </v>
   <v type="int" >       64 </v>
   <v type="int" >       65 </v>
   <v type="int" >       66 </v>
   <v type="int" >       67 </v>
   <v type="int" >       68 </v>
   <v type="int" >       69 </v>
   <v type="int" >       70 </v>
   <v type="int" >       71 </v>
   <v type="int" >       72 </v>
  </varray>
 </primitive_cell>
 <kpoints>
  <generation param="Gamma">
   <v type="int" name="divisions">       1        1        1 </v>
   <v name="usershift">      0.00000000       0.00000000       0.00000000 </v>
   <v name="genvec1">      1.00000000       0.00000000       0.00000000 </v>
   <v name="genvec2">      0.00000000       1.00000000       0.00000000 </v>
   <v name="genvec3">      0.00000000       0.00000000       1.00000000 </v>
   <v name="shift">      0.00000000       0.00000000       0.00000000 </v>
  </generation>
  <varray name="kpointlist" >
   <v>       0.00000000       0.00000000       0.00000000 </v>
  </varray>
  <varray name="weights" >
   <v>       1.00000000 </v>
  </varray>
 </kpoints>
 <parameters>
  <separator name="general" >
   <i type="string" name="SYSTEM">unknown system</i>
   <i type="logical" name="LCOMPAT"> F  </i>
  </separator>
  <separator name="electronic" >
   <i type="string" name="PREC">accura</i>
   <i name="ENMAX">    400.00000000</i>
   <i name="ENAUG">    456.10600000</i>
   <i name="EDIFF">      0.00000100</i>
   <i type="int" name="IALGO">    38</i>
   <i type="int" name="IWAVPR">    10</i>
   <i type="int" name="NBANDS">   416</i>
   <i type="int" name="NBANDSLOW">    -1</i>
   <i type="int" name="NBANDSHIGH">    -1</i>
   <i name="NELECT">    648.00000000</i>
   <i type="int" name="TURBO">     0</i>
   <i type="int" name="IRESTART">     0</i>
   <i type="int" name="NREBOOT">     0</i>
   <i type="int" name="NMIN">     0</i>
   <i name="EREF">      0.00000000</i>
   <separator name="electronic smearing" >
    <i type="int" name="ISMEAR">     0</i>
    <i name="SIGMA">      0.05000000</i>
    <i name="KSPACING">      0.50000000</i>
    <i type="logical" name="KGAMMA"> T  </i>
    <i type="logical" name="KBLOWUP"> T  </i>
   </separator>
   <separator name="electronic projectors" >
    <i type="logical" name="LREAL"> F  </i>
    <v name="ROPT">      0.00000000      0.00000000</v>
    <i type="int" name="LMAXPAW">  -100</i>
    <i type="int" name="LMAXMIX">     2</i>
    <i type="logical" name="NLSPLINE"> F  </i>
   </separator>
   <separator name="electronic startup" >
    <i type="int" name="ISTART">     0</i>
    <i type="int" name="ICHARG">     2</i>
    <i type="int" name="INIWAV">     1</i>
   </separator>
   <separator name="electronic spin" >
    <i type="int" name="ISPIN">     1</i>
    <i type="logical" name="LNONCOLLINEAR"> F  </i>
    <v name="MAGMOM">      1.00000000      1.00000000      1.00000000      1.00000000      1.00000000      1.00000000      1.00000000      1.00000000      1.00000000      1.00000000      1.00000000      1.00000000      1.00000000      1.00000000      1.00000000      1.00000000      1.00000000      1.00000000      1.00000000      1.00000000
      1.00000000      1.00000000      1.00000000      1.00000000      1.00000000      1.00000000      1.00000000      1.00000000      1.00000000      1.00000000      1.00000000      1.00000000      1.00000000      1.00000000      1.00000000      1.00000000      1.00000000      1.00000000      1.00000000      1.00000000
      1.00000000      1.00000000      1.00000000      1.00000000      1.00000000      1.00000000      1.00000000      1.00000000      1.00000000      1.00000000      1.00000000      1.00000000      1.00000000      1.00000000      1.00000000      1.00000000      1.00000000      1.00000000      1.00000000      1.00000000
      1.00000000      1.00000000      1.00000000      1.00000000      1.00000000      1.00000000      1.00000000      1.00000000      1.00000000      1.00000000      1.00000000      1.00000000</v>
    <i name="NUPDOWN">     -1.00000000</i>
    <i type="logical" name="LSORBIT"> F  </i>
    <v name="SAXIS">      0.00000000      0.00000000      1.00000000</v>
    <i type="logical" name="LSPIRAL"> F  </i>
    <v name="QSPIRAL">      0.00000000      0.00000000      0.00000000</v>
    <i type="logical" name="LZEROZ"> F  </i>
   </separator>
   <separator name="electronic exchange-correlation" >
    <i type="logical" name="LASPH"> F  </i>
    <i type="logical" name="LMETAGGA"> F  </i>
   </separator>
   <separator name="electronic convergence" >
    <i type="int" name="NELM">   100</i>
    <i type="int" name="NELMDL">    -5</i>
    <i type="int" name="NELMIN">     2</i>
    <i name="ENINI">    400.00000000</i>
    <separator name="electronic convergence detail" >
     <i type="logical" name="LDIAG"> T  </i>
     <i type="logical" name="LSUBROT"> F  </i>
     <i name="WEIMIN">      0.00000000</i>
     <i name="EBREAK">      0.00000000</i>
     <i name="DEPER">      0.30000000</i>
     <i type="int" name="NRMM">     4</i>
     <i name="TIME">      0.40000000</i>
    </separator>
   </separator>
   <separator name="electronic mixer" >
    <i name="AMIX">      0.40000000</i>
    <i name="BMIX">      1.00000000</i>
    <i name="AMIN">      0.10000000</i>
    <i name="AMIX_MAG">      1.60000000</i>
    <i name="BMIX_MAG">      1.00000000</i>
    <separator name="electronic mixer details" >
     <i type="int" name="IMIX">     4</i>
     <i type="logical" name="MIXFIRST"> F  </i>
     <i type="int" name="MAXMIX">   -45</i>
     <i name="WC">    100.00000000</i>
     <i type="int" name="INIMIX">     1</i>
     <i type="int" name="MIXPRE">     1</i>
     <i type="int" name="MREMOVE">     5</i>
    </separator>
   </separator>
   <separator name="electronic dipolcorrection" >
    <i type="logical" name="LDIPOL"> F  </i>
    <i type="logical" name="LMONO"> F  </i>
    <i type="int" name="IDIPOL">     0</i>
    <i name="EPSILON">      1.00000000</i>
    <v name="DIPOL">   -100.00000000   -100.00000000   -100.00000000</v>
    <i name="EFIELD">      0.00000000</i>
   </separator>
  </separator>
  <separator name="grids" >
   <i type="int" name="NGX">    84</i>
   <i type="int" name="NGY">    84</i>
   <i type="int" name="NGZ">    90</i>
   <i type="int" name="NGXF">   168</i>
   <i type="int" name="NGYF">   168</i>
   <i type="int" name="NGZF">   180</i>
   <i type="logical" name="ADDGRID"> F  </i>
  </separator>
  <separator name="ionic" >
   <i type="int" name="NSW">     0</i>
   <i type="int" name="IBRION">    -1</i>
   <i type="int" name="MDALGO">     0</i>
   <i type="int" name="ISIF">     2</i>
   <i name="PSTRESS">      0.00000000</i>
   <i name="EDIFFG">      0.00001000</i>
   <i type="int" name="NFREE">     0</i>
   <i name="POTIM">      0.50000000</i>
   <i name="SMASS">     -3.00000000</i>
   <i name="SCALEE">      1.00000000</i>
  </separator>
  <separator name="ionic md" >
   <i name="TEBEG">      0.00010000</i>
   <i name="TEEND">      0.00010000</i>
   <i type="int" name="NBLOCK">     1</i>
   <i type="int" name="KBLOCK">     1</i>
   <i type="int" name="NPACO">   256</i>
   <i name="APACO">     10.00000000</i>
  </separator>
  <separator name="symmetry" >
   <i type="int" name="ISYM">     2</i>
   <i name="SYMPREC">      0.00001000</i>
  </separator>
  <separator name="dos" >
   <i type="int" name="LORBIT">     0</i>
   <v name="RWIGS">     -1.00000000     -1.00000000</v>
   <i type="int" name="NEDOS">   301</i>
   <i name="EMIN">     10.00000000</i>
   <i name="EMAX">    -10.00000000</i>
   <i name="EFERMI">      0.00000000</i>
  </separator>
  <separator name="writing" >
   <i type="int" name="NWRITE">     2</i>
   <i type="logical" name="LWAVE"> F  </i>
   <i type="logical" name="LDOWNSAMPLE"> F  </i>
   <i type="logical" name="LCHARG"> F  </i>
   <i type="logical" name="LPARD"> F  </i>
   <i type="logical" name="LVTOT"> F  </i>
   <i type="logical" name="LVHAR"> F  </i>
   <i type="logical" name="LELF"> F  </i>
   <i type="logical" name="LOPTICS"> F  </i>
   <v name="STM">      0.00000000      0.00000000      0.00000000      0.00000000      0.00000000      0.00000000      0.00000000</v>
  </separator>
  <separator name="performance" >
   <i type="int" name="NPAR">    32</i>
   <i type="int" name="NSIM">     4</i>
   <i type="int" name="NBLK">    -1</i>
   <i type="logical" name="LPLANE"> T  </i>
   <i type="logical" name="LSCALAPACK"> T  </i>
   <i type="logical" name="LSCAAWARE"> F  </i>
   <i type="logical" name="LSCALU"> F  </i>
   <i type="logical" name="LASYNC"> F  </i>
   <i type="logical" name="LORBITALREAL"> F  </i>
  </separator>
  <separator name="miscellaneous" >
   <i type="int" name="IDIOT">     3</i>
   <i type="int" name="PHON_NSTRUCT">    -1</i>
   <i type="logical" name="LMUSIC"> F  </i>
   <v name="POMASS">    112.41100000     32.06600000</v>
   <v name="DARWINR">      0.00000000      0.00000000</v>
   <v name="DARWINV">      1.00000000      1.00000000</v>
   <i type="logical" name="LCORR"> T  </i>
  </separator>
  <i type="logical" name="GGA_COMPAT"> T  </i>
  <i type="logical" name="LBERRY"> F  </i>
  <i type="int" name="ICORELEVEL">     0</i>
  <i type="logical" name="LDAU"> F  </i>
  <i type="int" name="I_CONSTRAINED_M">     0</i>
  <separator name="electronic exchange-correlation" >
   <i type="string" name="GGA">PS</i>
   <i type="int" name="VOSKOWN">     0</i>
   <i type="logical" name="LHFCALC"> F  </i>
   <i type="string" name="PRECFOCK"></i>
   <i type="logical" name="LSYMGRAD"> F  </i>
   <i type="logical" name="LHFONE"> F  </i>
   <i type="logical" name="LRHFCALC"> F  </i>
   <i type="logical" name="LTHOMAS"> F  </i>
   <i type="logical" name="LMODELHF"> F  </i>
   <i type="logical" name="LFOCKACE"> F  </i>
   <i name="ENCUT4O">     -1.00000000</i>
   <i type="int" name="EXXOEP">     0</i>
   <i type="int" name="FOURORBIT">     0</i>
   <i name="AEXX">      0.00000000</i>
   <i name="HFALPHA">      0.00000000</i>
   <i name="MCALPHA">      0.00000000</i>
   <i name="ALDAX">      1.00000000</i>
   <i name="AGGAX">      1.00000000</i>
   <i name="ALDAC">      1.00000000</i>
   <i name="AGGAC">      1.00000000</i>
   <i type="int" name="NKREDX">     1</i>
   <i type="int" name="NKREDY">     1</i>
   <i type="int" name="NKREDZ">     1</i>
   <i type="logical" name="SHIFTRED"> F  </i>
   <i type="logical" name="ODDONLY"> F  </i>
   <i type="logical" name="EVENONLY"> F  </i>
   <i type="int" name="LMAXFOCK">     0</i>
   <i type="int" name="NMAXFOCKAE">     0</i>
   <i type="logical" name="LFOCKAEDFT"> F  </i>
   <i name="HFSCREEN">      0.00000000</i>
   <i name="HFSCREENC">      0.00000000</i>
   <i type="int" name="NBANDSGWLOW">     0</i>
  </separator>
  <separator name="vdW DFT" >
   <i type="logical" name="LUSE_VDW"> F  </i>
   <i type="int" name="IVDW_NL">     1</i>
   <i type="logical" name="LSPIN_VDW"> F  </i>
   <i name="Zab_VDW">     -0.84910000</i>
   <i name="PARAM1">      0.12340000</i>
   <i name="PARAM2">      1.00000000</i>
   <i name="PARAM3">      0.00000000</i>
  </separator>
  <separator name="model GW" >
   <i type="int" name="MODEL_GW">     0</i>
   <i name="MODEL_EPS0">     15.30583882</i>
   <i name="MODEL_ALPHA">      1.00000000</i>
  </separator>
  <separator name="linear response parameters" >
   <i type="logical" name="LEPSILON"> F  </i>
   <i type="logical" name="LRPA"> F  </i>
   <i type="logical" name="LNABLA"> F  </i>
   <i type="logical" name="LVEL"> F  </i>
   <i name="CSHIFT">      0.10000000</i>
   <i name="OMEGAMAX">     -1.00000000</i>
   <i name="DEG_THRESHOLD">      0.00200000</i>
   <i name="RTIME">     -0.10000000</i>
   <i name="WPLASMAI">      0.00000000</i>
   <v name="DFIELD">      0.00000000      0.00000000      0.00000000</v>
   <v name="WPLASMA">      0.00000000      0.00000000      0.00000000      0.00000000      0.00000000      0.00000000      0.00000000      0.00000000      0.00000000</v>
  </separator>
  <separator name="orbital magnetization" >
   <i type="logical" name="NUCIND"> F  </i>
   <v name="MAGPOS">      0.00000000      0.00000000      0.00000000</v>
   <i type="logical" name="LNICSALL"> T  </i>
   <i type="logical" name="ORBITALMAG"> F  </i>
   <i type="logical" name="LMAGBLOCH"> F  </i>
   <i type="logical" name="LCHIMAG"> F  </i>
   <i type="logical" name="LGAUGE"> T  </i>
   <i type="int" name="MAGATOM">     0</i>
   <v name="MAGDIPOL">      0.00000000      0.00000000      0.00000000</v>
   <v name="AVECCONST">      0.00000000      0.00000000      0.00000000</v>
  </separator>
  <separator name="response functions" >
   <i type="logical" name="LALL_IN_ONE"> F  </i>
   <i type="int" name="IALL_IN_ONE">    -1</i>
   <i type="int" name="NBANDS_WAVE">    -1</i>
   <i type="logical" name="LFINITE_TEMPERATURE"> F  </i>
   <i type="logical" name="LADDER"> F  </i>
   <i type="logical" name="LRPAFORCE"> F  </i>
   <i type="logical" name="LFXC"> F  </i>
   <i type="logical" name="LHARTREE"> T  </i>
   <i type="int" name="IBSE">     0</i>
   <v type="int" name="KPOINT">    -1     0     0     0</v>
   <i type="logical" name="LTCTC"> F  </i>
   <i type="logical" name="LTCTE"> F  </i>
   <i type="logical" name="LTETE"> F  </i>
   <i type="logical" name="LTRIPLET"> F  </i>
   <i type="logical" name="LFXCEPS"> F  </i>
   <i type="logical" name="LFXHEG"> F  </i>
   <i type="int" name="NATURALO">     2</i>
   <i type="logical" name="LHOLEGF"> F  </i>
   <i type="logical" name="L2ORDER"> F  </i>
   <i type="logical" name="LDMP1"> F  </i>
   <i type="logical" name="LMP2LT"> F  </i>
   <i type="logical" name="LSMP2LT"> F  </i>
   <i type="logical" name="LGWLF"> F  </i>
   <i name="ENCUTGW">     -1.60000002</i>
   <i name="ENCUTGWSOFT">     -1.60000002</i>
   <i name="ENCUTLF">     -1.00000000</i>
   <i type="logical" name="LESF_SPLINES"> F  </i>
   <i type="int" name="LMAXMP2">    -1</i>
   <i name="SCISSOR">      0.00000000</i>
   <i type="int" name="NOMEGA">     0</i>
   <i type="int" name="NOMEGAR">     0</i>
   <i type="int" name="NBANDSGW">    -1</i>
   <i type="int" name="NBANDSO">    -1</i>
   <i type="int" name="NBANDSV">    -1</i>
   <i type="int" name="NELMGW">     1</i>
   <i type="int" name="NELMHF">     1</i>
   <i type="int" name="DIM">     3</i>
   <i type="int" name="IESPILON">     4</i>
   <i type="int" name="ANTIRES">     0</i>
   <i name="OMEGAMAX">    -30.00000000</i>
   <i name="OMEGAMIN">    -30.00000000</i>
   <i name="OMEGATL">   -200.00000000</i>
   <i type="int" name="OMEGAGRID">     0</i>
   <i name="CSHIFT">     -0.10000000</i>
   <i type="logical" name="LSELFENERGY"> F  </i>
   <i type="logical" name="LSPECTRAL"> F  </i>
   <i type="logical" name="LSPECTRALGW"> F  </i>
   <i type="logical" name="LSINGLES"> F  </i>
   <i type="logical" name="LFERMIGW"> F  </i>
   <i type="logical" name="ODDONLYGW"> F  </i>
   <i type="logical" name="EVENONLYGW"> F  </i>
   <i type="int" name="NKREDLFX">     1</i>
   <i type="int" name="NKREDLFY">     1</i>
   <i type="int" name="NKREDLFZ">     1</i>
   <i type="int" name="MAXMEM">  2800</i>
   <i type="int" name="TELESCOPE">     0</i>
   <i type="int" name="NTAUPAR">    -1</i>
   <i type="int" name="NOMEGAPAR">    -1</i>
   <i name="DAMP_NEWTON">      0.80000001</i>
   <i name="LAMBDA">      1.00000000</i>
  </separator>
  <separator name="External order field" >
   <i name="OFIELD_KAPPA">      0.00000000</i>
   <v name="OFIELD_K">      0.00000000      0.00000000      0.00000000</v>
   <i name="OFIELD_Q6_NEAR">      0.00000000</i>
   <i name="OFIELD_Q6_FAR">      0.00000000</i>
   <i name="OFIELD_A">      0.00000000</i>
  </separator>
  <separator name="optional k-points parameters" >
   <i type="int" name="KPOINTS_OPT_MODE">     1</i>
   <i type="logical" name="LKPOINTS_OPT"> F  </i>
  </separator>
 </parameters>
 <atominfo>
  <atoms>      72 </atoms>
  <types>       2 </types>
  <array name="atoms" >
   <dimension dim="1">ion</dimension>
   <field type="string">element</field>
   <field type="int">atomtype</field>
   <set>
    <rc><c>Cd</c><c>   1</c></rc>
    <rc><c>Cd</c><c>   1</c></rc>
    <rc><c>Cd</c><c>   1</c></rc>
    <rc><c>Cd</c><c>   1</c></rc>
    <rc><c>Cd</c><c>   1</c></rc>
    <rc><c>Cd</c><c>   1</c></rc>
    <rc><c>Cd</c><c>   1</c></rc>
    <rc><c>Cd</c><c>   1</c></rc>
    <rc><c>Cd</c><c>   1</c></rc>
    <rc><c>Cd</c><c>   1</c></rc>
    <rc><c>Cd</c><c>   1</c></rc>
    <rc><c>Cd</c><c>   1</c></rc>
    <rc><c>Cd</c><c>   1</c></rc>
    <rc><c>Cd</c><c>   1</c></rc>
    <rc><c>Cd</c><c>   1</c></rc>
    <rc><c>Cd</c><c>   1</c></rc>
    <rc><c>Cd</c><c>   1</c></rc>
    <rc><c>Cd</c><c>   1</c></rc>
    <rc><c>Cd</c><c>   1</c></rc>
    <rc><c>Cd</c><c>   1</c></rc>
    <rc><c>Cd</c><c>   1</c></rc>
    <rc><c>Cd</c><c>   1</c></rc>
    <rc><c>Cd</c><c>   1</c></rc>
    <rc><c>Cd</c><c>   1</c></rc>
    <rc><c>Cd</c><c>   1</c></rc>
    <rc><c>Cd</c><c>   1</c></rc>
    <rc><c>Cd</c><c>   1</c></rc>
    <rc><c>Cd</c><c>   1</c></rc>
    <rc><c>Cd</c><c>   1</c></rc>
    <rc><c>Cd</c><c>   1</c></rc>
    <rc><c>Cd</c><c>   1</c></rc>
    <rc><c>Cd</c><c>   1</c></rc>
    <rc><c>Cd</c><c>   1</c></rc>
    <rc><c>Cd</c><c>   1</c></rc>
    <rc><c>Cd</c><c>   1</c></rc>
    <rc><c>Cd</c><c>   1</c></rc>
    <rc><c>S </c><c>   2</c></rc>
    <rc><c>S </c><c>   2</c></rc>
    <rc><c>S </c><c>   2</c></rc>
    <rc><c>S </c><c>   2</c></rc>
    <rc><c>S </c><c>   2</c></rc>
    <rc><c>S </c><c>   2</c></rc>
    <rc><c>S </c><c>   2</c></rc>
    <rc><c>S </c><c>   2</c></rc>
    <rc><c>S </c><c>   2</c></rc>
    <rc><c>S </c><c>   2</c></rc>
    <rc><c>S </c><c>   2</c></rc>
    <rc><c>S </c><c>   2</c></rc>
    <rc><c>S </c><c>   2</c></rc>
    <rc><c>S </c><c>   2</c></rc>
    <rc><c>S </c><c>   2</c></rc>
    <rc><c>S </c><c>   2</c></rc>
    <rc><c>S </c><c>   2</c></rc>
    <rc><c>S </c><c>   2</c></rc>
    <rc><c>S </c><c>   2</c></rc>
    <rc><c>S </c><c>   2</c></rc>
    <rc><c>S </c><c>   2</c></rc>
    <rc><c>S </c><c>   2</c></rc>
    <rc><c>S </c><c>   2</c></rc>
    <rc><c>S </c><c>   2</c></rc>
    <rc><c>S </c><c>   2</c></rc>
    <rc><c>S </c><c>   2</c></rc>
    <rc><c>S </c><c>   2</c></rc>
    <rc><c>S </c><c>   2</c></rc>
    <rc><c>S </c><c>   2</c></rc>
    <rc><c>S </c><c>   2</c></rc>
    <rc><c>S </c><c>   2</c></rc>
    <rc><c>S </c><c>   2</c></rc>
    <rc><c>S </c><c>   2</c></rc>
    <rc><c>S </c><c>   2</c></rc>
    <rc><c>S </c><c>   2</c></rc>
    <rc><c>S </c><c>   2</c></rc>
   </set>
  </array>
  <array name="atomtypes" >
   <dimension dim="1">type</dimension>
   <field type="int">atomspertype</field>
   <field type="string">element</field>
   <field>mass</field>
   <field>valence</field>
   <field type="string">pseudopotential</field>
   <set>
    <rc><c>  36</c><c>Cd</c><c>    112.41100000</c><c>     12.00000000</c><c>  PAW_PBE Cd 06Sep2000                  </c></rc>
    <rc><c>  36</c><c>S </c><c>     32.06600000</c><c>      6.00000000</c><c>  PAW_PBE S 06Sep2000                   </c></rc>
   </set>
  </array>
 </atominfo>
 <structure name="initialpos" >
  <crystal>
   <varray name="basis" >
    <v>       6.25325715     -10.83095910       0.00000000 </v>
    <v>       6.25325715      10.83095910       0.00000000 </v>
    <v>       0.00000000       0.00000000      13.55923482 </v>
   </varray>
   <i name="volume">   1836.70065798 </i>
   <varray name="rec_basis" >
    <v>       0.07995833      -0.04616396       0.00000000 </v>
    <v>       0.07995833       0.04616396       0.00000000 </v>
    <v>       0.00000000       0.00000000       0.07375047 </v>
   </varray>
  </crystal>
  <varray name="positions" >
   <v>       0.22222222       0.11111111       0.25011218 </v>
   <v>       0.11111111       0.22222222       0.00011218 </v>
   <v>       0.22222222       0.11111111       0.43838781 </v>
   <v>       0.11111111       0.22222222       0.18838781 </v>
   <v>       0.22222222       0.11111111       0.75011218 </v>
   <v>       0.11111111       0.22222222       0.50011218 </v>
   <v>       0.22222222       0.11111111       0.93838781 </v>
   <v>       0.11111111       0.22222222       0.68838781 </v>
   <v>       0.22222222       0.44444444       0.25011218 </v>
   <v>       0.11111111       0.55555556       0.00011218 </v>
   <v>       0.22222222       0.44444444       0.43838781 </v>
   <v>       0.11111111       0.55555556       0.18838781 </v>
   <v>       0.22222222       0.44444444       0.75011218 </v>
   <v>       0.11111111       0.55555556       0.50011218 </v>
   <v>       0.22222222       0.44444444       0.93838781 </v>
   <v>       0.11111111       0.55555556       0.68838781 </v>
   <v>       0.22222222       0.77777778       0.25011218 </v>
   <v>       0.11111111       0.88888889       0.00011218 </v>
   <v>       0.22222222       0.77777778       0.43838781 </v>
   <v>       0.11111111       0.88888889       0.18838781 </v>
   <v>       0.22222222       0.77777778       0.75011218 </v>
   <v>       0.11111111       0.88888889       0.50011218 </v>
   <v>       0.22222222       0.77777778       0.93838781 </v>
   <v>       0.11111111       0.88888889       0.68838781 </v>
   <v>       0.55555556       0.11111111       0.25011218 </v>
   <v>       0.44444444       0.22222222       0.00011218 </v>
   <v>       0.55555556       0.11111111       0.43838781 </v>
   <v>       0.44444444       0.22222222       0.18838781 </v>
   <v>       0.55555556       0.11111111       0.75011218 </v>
   <v>       0.44444444       0.22222222       0.50011218 </v>
   <v>       0.55555556       0.11111111       0.93838781 </v>
   <v>       0.44444444       0.22222222       0.68838781 </v>
   <v>       0.55555556       0.44444444       0.25011218 </v>
   <v>       0.44444444       0.55555556       0.00011218 </v>
   <v>       0.55555556       0.44444444       0.43838781 </v>
   <v>       0.44444444       0.55555556       0.18838781 </v>
   <v>       0.55555556       0.44444444       0.75011218 </v>
   <v>       0.44444444       0.55555556       0.50011218 </v>
   <v>       0.55555556       0.44444444       0.93838781 </v>
   <v>       0.44444444       0.55555556       0.68838781 </v>
   <v>       0.55555556       0.77777778       0.25011218 </v>
   <v>       0.44444444       0.88888889       0.00011218 </v>
   <v>       0.55555556       0.77777778       0.43838781 </v>
   <v>       0.44444444       0.88888889       0.18838781 </v>
   <v>       0.55555556       0.77777778       0.75011218 </v>
   <v>       0.44444444       0.88888889       0.50011218 </v>
   <v>       0.55555556       0.77777778       0.93838781 </v>
   <v>       0.44444444       0.88888889       0.68838781 </v>
   <v>       0.88888889       0.11111111       0.25011218 </v>
   <v>       0.77777778       0.22222222       0.00011218 </v>
   <v>       0.88888889       0.11111111       0.43838781 </v>
   <v>       0.77777778       0.22222222       0.18838781 </v>
   <v>       0.88888889       0.11111111       0.75011218 </v>
   <v>       0.77777778       0.22222222       0.50011218 </v>
   <v>       0.88888889       0.11111111       0.93838781 </v>
   <v>       0.77777778       0.22222222       0.68838781 </v>
   <v>       0.88888889       0.44444444       0.25011218 </v>
   <v>       0.77777778       0.55555556       0.00011218 </v>
   <v>       0.88888889       0.44444444       0.43838781 </v>
   <v>       0.77777778       0.55555556       0.18838781 </v>
   <v>       0.88888889       0.44444444       0.75011218 </v>
   <v>       0.77777778       0.55555556       0.50011218 </v>
   <v>       0.88888889       0.44444444       0.93838781 </v>
   <v>       0.77777778       0.55555556       0.68838781 </v>
   <v>       0.88888889       0.77777778       0.25011218 </v>
   <v>       0.77777778       0.88888889       0.00011218 </v>
   <v>       0.88888889       0.77777778       0.43838781 </v>
   <v>       0.77777778       0.88888889       0.18838781 </v>
   <v>       0.88888889       0.77777778       0.75011218 </v>
   <v>       0.77777778       0.88888889       0.50011218 </v>
   <v>       0.88888889       0.77777778       0.93838781 </v>
   <v>       0.77777778       0.88888889       0.68838781 </v>
  </varray>
 </structure>
 <calculation>
  <scstep>
   <time name="dav">    2.67    2.86</time>
   <time name="total">    2.76    3.04</time>
   <energy>
    <i name="alphaZ">   2675.77335074 </i>
    <i name="ewald"> -36680.42958573 </i>
    <i name="hartreedc"> -21546.76138559 </i>
    <i name="XCdc">    685.13145792 </i>
    <i name="pawpsdc">  50859.63822305 </i>
    <i name="pawaedc"> -49554.61650470 </i>
    <i name="eentropy">     -0.02223614 </i>
    <i name="bandstr">   1154.94188581 </i>
    <i name="atom">  56479.20065936 </i>
    <i name="e_fr_energy">   4072.85586472 </i>
    <i name="e_wo_entrp">   4072.87810086 </i>
    <i name="e_0_energy">   4072.86698279 </i>
   </energy>
  </scstep>
  <scstep>
   <time name="dav">    2.78    2.81</time>
   <time name="total">    2.78    2.81</time>
   <energy>
    <i name="e_fr_energy">    122.15214554 </i>
    <i name="e_wo_entrp">    122.20280658 </i>
    <i name="e_0_energy">    122.17747606 </i>
   </energy>
  </scstep>
  <scstep>
   <time name="dav">    2.90    2.93</time>
   <time name="total">    2.90    2.93</time>
   <energy>
    <i name="e_fr_energy">   -160.96711135 </i>
    <i name="e_wo_entrp">   -160.89727030 </i>
    <i name="e_0_energy">   -160.93219082 </i>
   </energy>
  </scstep>
  <scstep>
   <time name="dav">    2.72    2.74</time>
   <time name="total">    2.72    2.74</time>
   <energy>
    <i name="e_fr_energy">   -166.79822913 </i>
    <i name="e_wo_entrp">   -166.73183004 </i>
    <i name="e_0_energy">   -166.76502959 </i>
   </energy>
  </scstep>
  <scstep>
   <time name="dav">    2.78    2.81</time>
   <time name="total">    2.92    2.95</time>
   <energy>
    <i name="e_fr_energy">   -166.91149571 </i>
    <i name="e_wo_entrp">   -166.84523127 </i>
    <i name="e_0_energy">   -166.87836349 </i>
   </energy>
  </scstep>
  <scstep>
   <time name="dav">    3.07    3.09</time>
   <time name="total">    3.28    3.34</time>
   <energy>
    <i name="e_fr_energy">   -158.65580617 </i>
    <i name="e_wo_entrp">   -158.61857877 </i>
    <i name="e_0_energy">   -158.63719247 </i>
   </energy>
  </scstep>
  <scstep>
   <time name="dav">    2.91    2.93</time>
   <time name="total">    3.13    3.16</time>
   <energy>
    <i name="e_fr_energy">   -158.63903835 </i>
    <i name="e_wo_entrp">   -158.58572039 </i>
    <i name="e_0_energy">   -158.61237937 </i>
   </energy>
  </scstep>
  <scstep>
   <time name="dav">    3.22    3.25</time>
   <time name="total">    3.44    3.46</time>
   <energy>
    <i name="e_fr_energy">   -159.08464251 </i>
    <i name="e_wo_entrp">   -158.99794608 </i>
    <i name="e_0_energy">   -159.04129430 </i>
   </energy>
  </scstep>
  <scstep>
   <time name="dav">    3.19    3.22</time>
   <time name="total">    3.41    3.44</time>
   <energy>
    <i name="e_fr_energy">   -156.93736359 </i>
    <i name="e_wo_entrp">   -156.87459972 </i>
    <i name="e_0_energy">   -156.90598165 </i>
   </energy>
  </scstep>
  <scstep>
   <time name="dav">    2.85    2.87</time>
   <time name="total">    3.06    3.08</time>
   <energy>
    <i name="e_fr_energy">   -156.80453770 </i>
    <i name="e_wo_entrp">   -156.74942086 </i>
    <i name="e_0_energy">   -156.77697928 </i>
   </energy>
  </scstep>
  <scstep>
   <time name="dav">    2.79    2.82</time>
   <time name="total">    3.00    3.03</time>
   <energy>
    <i name="e_fr_energy">   -156.77639361 </i>
    <i name="e_wo_entrp">   -156.72041020 </i>
    <i name="e_0_energy">   -156.74840190 </i>
   </energy>
  </scstep>
  <scstep>
   <time name="dav">    2.72    2.74</time>
   <time name="total">    2.92    2.95</time>
   <energy>
    <i name="e_fr_energy">   -156.77262087 </i>
    <i name="e_wo_entrp">   -156.71354852 </i>
    <i name="e_0_energy">   -156.74308469 </i>
   </energy>
  </scstep>
  <scstep>
   <time name="dav">    2.76    2.78</time>
   <time name="total">    2.97    2.99</time>
   <energy>
    <i name="e_fr_energy">   -156.77008677 </i>
    <i name="e_wo_entrp">   -156.71187872 </i>
    <i name="e_0_energy">   -156.74098274 </i>
   </energy>
  </scstep>
  <scstep>
   <time name="dav">    2.81    2.83</time>
   <time name="total">    3.02    3.05</time>
   <energy>
    <i name="e_fr_energy">   -156.76874031 </i>
    <i name="e_wo_entrp">   -156.71152310 </i>
    <i name="e_0_energy">   -156.74013170 </i>
   </energy>
  </scstep>
  <scstep>
   <time name="dav">    2.83    2.86</time>
   <time name="total">    3.05    3.08</time>
   <energy>
    <i name="e_fr_energy">   -156.76803826 </i>
    <i name="e_wo_entrp">   -156.70968352 </i>
    <i name="e_0_energy">   -156.73886089 </i>
   </energy>
  </scstep>
  <scstep>
   <time name="dav">    2.87    2.90</time>
   <time name="total">    3.08    3.11</time>
   <energy>
    <i name="e_fr_energy">   -156.76796662 </i>
    <i name="e_wo_entrp">   -156.71033378 </i>
    <i name="e_0_energy">   -156.73915020 </i>
   </energy>
  </scstep>
  <scstep>
   <time name="dav">    2.91    2.94</time>
   <time name="total">    3.13    3.16</time>
   <energy>
    <i name="e_fr_energy">   -156.76794945 </i>
    <i name="e_wo_entrp">   -156.71000764 </i>
    <i name="e_0_energy">   -156.73897855 </i>
   </energy>
  </scstep>
  <scstep>
   <time name="dav">    2.81    2.83</time>
   <time name="total">    3.02    3.04</time>
   <energy>
    <i name="e_fr_energy">   -156.76794963 </i>
    <i name="e_wo_entrp">   -156.71015271 </i>
    <i name="e_0_energy">   -156.73905117 </i>
   </energy>
  </scstep>
  <scstep>
   <time name="dav">    2.63    2.65</time>
   <time name="total">    2.82    2.84</time>
   <energy>
    <i name="e_fr_energy">   -156.76795130 </i>
    <i name="e_wo_entrp">   -156.71006266 </i>
    <i name="e_0_energy">   -156.73900698 </i>
   </energy>
  </scstep>
  <scstep>
   <time name="dav">    2.34    2.36</time>
   <time name="total">    2.55    2.56</time>
   <energy>
    <i name="e_fr_energy">   -156.76795259 </i>
    <i name="e_wo_entrp">   -156.71008957 </i>
    <i name="e_0_energy">   -156.73902108 </i>
   </energy>
  </scstep>
  <scstep>
   <time name="dav">    2.23    2.25</time>
   <time name="total">    2.30    2.32</time>
   <energy>
    <i name="alphaZ">   2675.77335074 </i>
    <i name="ewald"> -36680.42958573 </i>
    <i name="hartreedc"> -21155.50357571 </i>
    <i name="XCdc">    675.04274418 </i>
    <i name="pawpsdc">  64817.71716241 </i>
    <i name="pawaedc"> -63544.24613037 </i>
    <i name="eentropy">     -0.05785574 </i>
    <i name="bandstr">  -3424.26472210 </i>
    <i name="atom">  56479.20065936 </i>
    <i name="e_fr_energy">   -156.76795297 </i>
    <i name="e_wo_entrp">   -156.71009723 </i>
    <i name="e_0_energy">   -156.73902510 </i>
   </energy>
  </scstep>
  <structure>
   <crystal>
    <varray name="basis" >
     <v>       6.25325715     -10.83095910       0.00000000 </v>
     <v>       6.25325715      10.83095910       0.00000000 </v>
     <v>       0.00000000       0.00000000      13.55923482 </v>
    </varray>
    <i name="volume">   1836.70065798 </i>
    <varray name="rec_basis" >
     <v>       0.07995833      -0.04616396       0.00000000 </v>
     <v>       0.07995833       0.04616396       0.00000000 </v>
     <v>       0.00000000       0.00000000       0.07375047 </v>
    </varray>
   </crystal>
   <varray name="positions" >
    <v>       0.22222222       0.11111111       0.25011218 </v>
    <v>       0.11111111       0.22222222       0.00011218 </v>
    <v>       0.22222222       0.11111111       0.43838781 </v>
    <v>       0.11111111       0.22222222       0.18838781 </v>
    <v>       0.22222222       0.11111111       0.75011218 </v>
    <v>       0.11111111       0.22222222       0.50011218 </v>
    <v>       0.22222222       0.11111111       0.93838781 </v>
    <v>       0.11111111       0.22222222       0.68838781 </v>
    <v>       0.22222222       0.44444444       0.25011218 </v>
    <v>       0.11111111       0.55555556       0.00011218 </v>
    <v>       0.22222222       0.44444444       0.43838781 </v>
    <v>       0.11111111       0.55555556       0.18838781 </v>
    <v>       0.22222222       0.44444444       0.75011218 </v>
    <v>       0.11111111       0.55555556       0.50011218 </v>
    <v>       0.22222222       0.44444444       0.93838781 </v>
    <v>       0.11111111       0.55555556       0.68838781 </v>
    <v>       0.22222222       0.77777778       0.25011218 </v>
    <v>       0.11111111       0.88888889       0.00011218 </v>
    <v>       0.22222222       0.77777778       0.43838781 </v>
    <v>       0.11111111       0.88888889       0.18838781 </v>
    <v>       0.22222222       0.77777778       0.75011218 </v>
    <v>       0.11111111       0.88888889       0.50011218 </v>
    <v>       0.22222222       0.77777778       0.93838781 </v>
    <v>       0.11111111       0.88888889       0.68838781 </v>
    <v>       0.55555556       0.11111111       0.25011218 </v>
    <v>       0.44444444       0.22222222       0.00011218 </v>
    <v>       0.55555556       0.11111111       0.43838781 </v>
    <v>       0.44444444       0.22222222       0.18838781 </v>
    <v>       0.55555556       0.11111111       0.75011218 </v>
    <v>       0.44444444       0.22222222       0.50011218 </v>
    <v>       0.55555556       0.11111111       0.93838781 </v>
    <v>       0.44444444       0.22222222       0.68838781 </v>
    <v>       0.55555556       0.44444444       0.25011218 </v>
    <v>       0.44444444       0.55555556       0.00011218 </v>
    <v>       0.55555556       0.44444444       0.43838781 </v>
    <v>       0.44444444       0.55555556       0.18838781 </v>
    <v>       0.55555556       0.44444444       0.75011218 </v>
    <v>       0.44444444       0.55555556       0.50011218 </v>
    <v>       0.55555556       0.44444444       0.93838781 </v>
    <v>       0.44444444       0.55555556       0.68838781 </v>
    <v>       0.55555556       0.77777778       0.25011218 </v>
    <v>       0.44444444       0.88888889       0.00011218 </v>
    <v>       0.55555556       0.77777778       0.43838781 </v>
    <v>       0.44444444       0.88888889       0.18838781 </v>
    <v>       0.55555556       0.77777778       0.75011218 </v>
    <v>       0.44444444       0.88888889       0.50011218 </v>
    <v>       0.55555556       0.77777778       0.93838781 </v>
    <v>       0.44444444       0.88888889       0.68838781 </v>
    <v>       0.88888889       0.11111111       0.25011218 </v>
    <v>       0.77777778       0.22222222       0.00011218 </v>
    <v>       0.88888889       0.11111111       0.43838781 </v>
    <v>       0.77777778       0.22222222       0.18838781 </v>
    <v>       0.88888889       0.11111111       0.75011218 </v>
    <v>       0.77777778       0.22222222       0.50011218 </v>
    <v>       0.88888889       0.11111111       0.93838781 </v>
    <v>       0.77777778       0.22222222       0.68838781 </v>
    <v>       0.88888889       0.44444444       0.25011218 </v>
    <v>       0.77777778       0.55555556       0.00011218 </v>
    <v>       0.88888889       0.44444444       0.43838781 </v>
    <v>       0.77777778       0.55555556       0.18838781 </v>
    <v>       0.88888889       0.44444444       0.75011218 </v>
    <v>       0.77777778       0.55555556       0.50011218 </v>
    <v>       0.88888889       0.44444444       0.93838781 </v>
    <v>       0.77777778       0.55555556       0.68838781 </v>
    <v>       0.88888889       0.77777778       0.25011218 </v>
    <v>       0.77777778       0.88888889       0.00011218 </v>
    <v>       0.88888889       0.77777778       0.43838781 </v>
    <v>       0.77777778       0.88888889       0.18838781 </v>
    <v>       0.88888889       0.77777778       0.75011218 </v>
    <v>       0.77777778       0.88888889       0.50011218 </v>
    <v>       0.88888889       0.77777778       0.93838781 </v>
    <v>       0.77777778       0.88888889       0.68838781 </v>
   </varray>
  </structure>
  <varray name="forces" >
   <v>      -0.09303603       0.01804261      -0.01383182 </v>
   <v>      -1.06632129       0.62692885      -0.34972691 </v>
   <v>      -0.03594295       0.02520208      -0.00935260 </v>
   <v>      -1.02201419       0.69478714       0.41028598 </v>
   <v>      -0.11393568      -0.09650321       0.03263363 </v>
   <v>      -0.96977832       0.93852415      -0.39075414 </v>
   <v>      -0.14701531      -0.11660812      -0.03124410 </v>
   <v>      -0.96494981       0.85848032       0.47417802 </v>
   <v>      -0.14421409       0.06107998      -0.00064590 </v>
   <v>      -0.94092743       0.79460718      -0.42060706 </v>
   <v>       1.18220944      -0.67647754       0.57648123 </v>
   <v>      -0.92005131       0.81561548       0.42111483 </v>
   <v>       1.20874355      -0.69059048      -0.53325916 </v>
   <v>      -1.13867975       0.66247648      -0.47423979 </v>
   <v>      -0.10957430       0.15045795      -0.04710381 </v>
   <v>      -1.16011485       0.60938616       0.54891859 </v>
   <v>       1.01910209      -0.56321753      -0.45209271 </v>
   <v>      -1.19252555       0.37775175      -0.51500482 </v>
   <v>       1.07284619      -0.52888164       0.39915098 </v>
   <v>      -1.15862070       0.32036363       0.40389016 </v>
   <v>       1.08878386      -0.48065726      -0.41668813 </v>
   <v>      -1.22137771       0.35952618      -0.45665641 </v>
   <v>       1.07031860      -0.48939141       0.48664313 </v>
   <v>      -1.22403263       0.39681351       0.60657693 </v>
   <v>      -0.04569029      -1.38180718      -0.71083811 </v>
   <v>       1.28595317       0.63667123      -0.71924390 </v>
   <v>      -0.06713098      -1.39218789       0.72914249 </v>
   <v>      -0.16939477      -0.03590806       0.08534520 </v>
   <v>      -0.16982549      -1.18045590      -0.82932372 </v>
   <v>      -0.12004297      -0.10051857      -0.06709567 </v>
   <v>      -0.14078264      -1.23396671       0.78502446 </v>
   <v>       1.28104517       0.55937381       0.70279911 </v>
   <v>       1.27793602      -0.69967198      -0.30239232 </v>
   <v>       1.27297472      -0.77858195      -0.83826004 </v>
   <v>       1.33452837       0.93456436       0.77927758 </v>
   <v>       1.24186269       0.82826333       0.39970680 </v>
   <v>       0.50300125       0.67430899      -0.15703801 </v>
   <v>       0.50057552       0.24061794      -0.16380144 </v>
   <v>       0.11965365      -0.02917012      -0.17577959 </v>
   <v>       0.77275280      -0.31744810       0.30243681 </v>
   <v>       0.37664569       0.27949632       0.72760993 </v>
   <v>       0.05740415      -0.35137316       0.77541856 </v>
   <v>       0.07554130      -0.67285752      -0.42460488 </v>
   <v>      -0.00982126      -0.22315206      -0.72854964 </v>
   <v>      -0.50152833      -0.20962097       0.12344392 </v>
   <v>       0.21848000      -0.24078005       0.72502797 </v>
   <v>       0.23543575       0.32164552      -0.52636073 </v>
   <v>       0.31531611      -0.34015220      -0.44071212 </v>
   <v>      -0.70351392       0.09769368       0.23455170 </v>
   <v>       0.52038062      -0.30427449       0.74254572 </v>
   <v>      -0.49426045       0.15109397      -0.22325807 </v>
   <v>       0.54403177      -0.29041397      -0.71847083 </v>
   <v>      -0.47201579       0.11493338       0.14522598 </v>
   <v>       0.52038253      -0.39123128       0.88795582 </v>
   <v>      -0.53953771       0.21944844      -0.24106843 </v>
   <v>       0.42958607      -0.32617010      -0.94285554 </v>
   <v>      -0.70186288       0.28130835       1.11553469 </v>
   <v>       0.12285230       0.10363107       0.41174045 </v>
   <v>      -0.65438088       0.21815146      -1.03638200 </v>
   <v>       0.67299676      -0.33879790      -1.13593899 </v>
   <v>      -0.29388424       0.52386360      -0.01000238 </v>
   <v>       0.52000758      -0.25218522       0.84882450 </v>
   <v>      -0.56136367       0.35892479      -0.23214850 </v>
   <v>      -0.26312785      -0.25133700      -0.10060475 </v>
   <v>      -0.43240556       0.32918055       0.39061967 </v>
   <v>       0.05372443      -0.40468387       0.38900365 </v>
   <v>      -0.37686798       0.38913416      -0.42688008 </v>
   <v>       0.26662490      -0.09580462      -0.44198262 </v>
   <v>      -0.34092852       0.34644769      -0.06440041 </v>
   <v>      -0.23273053       0.17916532       0.26479541 </v>
   <v>      -0.39850131       0.10157504       0.29927151 </v>
   <v>       0.15101288      -0.11465837      -0.45597526 </v>
  </varray>
  <varray name="stress" >
   <v>      28.98705089       4.70819515      -0.23212900 </v>
   <v>       4.70819509      43.27601741      -0.33249310 </v>
   <v>      -0.23213059      -0.33249335      33.40042912 </v>
  </varray>
  <energy>
   <i name="e_fr_energy">   -156.76795297 </i>
   <i name="e_wo_entrp">   -156.71009723 </i>
   <i name="e_0_energy">   -156.73902510 </i>
  </energy>
  <time name="totalsc">   65.51   66.39</time>
  <eigenvalues>
   <array>
    <dimension dim="1">band</dimension>
    <dimension dim="2">kpoint</dimension>
    <dimension dim="3">spin</dimension>
    <field>eigene</field>
    <field>occ</field>
    <set>
     <set comment="spin 1">
      <set comment="kpoint 1">
       <r>  -12.8459    1.0000 </r>
       <r>  -12.4486    1.0000 </r>
       <r>  -12.4175    1.0000 </r>
       <r>  -12.3788    1.0000 </r>
       <r>  -12.2539    1.0000 </r>
       <r>  -12.0753    1.0000 </r>
       <r>  -12.0038    1.0000 </r>
       <r>  -11.9976    1.0000 </r>
       <r>  -11.8619    1.0000 </r>
       <r>  -11.8455    1.0000 </r>
       <r>  -11.7338    1.0000 </r>
       <r>  -11.6626    1.0000 </r>
       <r>  -11.6336    1.0000 </r>
       <r>  -11.5617    1.0000 </r>
       <r>  -11.3583    1.0000 </r>
       <r>  -11.1930    1.0000 </r>
       <r>  -11.0693    1.0000 </r>
       <r>  -10.9932    1.0000 </r>
       <r>  -10.8904    1.0000 </r>
       <r>  -10.7444    1.0000 </r>
       <r>  -10.6068    1.0000 </r>
       <r>  -10.3782    1.0000 </r>
       <r>  -10.2001    1.0000 </r>
       <r>  -10.1504    1.0000 </r>
       <r>  -10.1084    1.0000 </r>
       <r>  -10.0384    1.0000 </r>
       <r>   -9.9625    1.0000 </r>
       <r>   -9.8555    1.0000 </r>
       <r>   -9.6972    1.0000 </r>
       <r>   -9.6684    1.0000 </r>
       <r>   -9.5818    1.0000 </r>
       <r>   -9.3954    1.0000 </r>
       <r>   -9.2100    1.0000 </r>
       <r>   -9.1098    1.0000 </r>
       <r>   -9.0181    1.0000 </r>
       <r>   -8.4116    1.0000 </r>
       <r>   -8.1406    1.0000 </r>
       <r>   -8.0706    1.0000 </r>
       <r>   -8.0282    1.0000 </r>
       <r>   -8.0151    1.0000 </r>
       <r>   -7.9737    1.0000 </r>
       <r>   -7.9286    1.0000 </r>
       <r>   -7.9167    1.0000 </r>
       <r>   -7.9120    1.0000 </r>
       <r>   -7.8674    1.0000 </r>
       <r>   -7.8468    1.0000 </r>
       <r>   -7.8323    1.0000 </r>
       <r>   -7.8054    1.0000 </r>
       <r>   -7.7890    1.0000 </r>
       <r>   -7.7630    1.0000 </r>
       <r>   -7.7452    1.0000 </r>
       <r>   -7.7266    1.0000 </r>
       <r>   -7.7168    1.0000 </r>
       <r>   -7.6959    1.0000 </r>
       <r>   -7.6841    1.0000 </r>
       <r>   -7.6539    1.0000 </r>
       <r>   -7.6530    1.0000 </r>
       <r>   -7.6177    1.0000 </r>
       <r>   -7.5982    1.0000 </r>
       <r>   -7.5916    1.0000 </r>
       <r>   -7.5850    1.0000 </r>
       <r>   -7.5733    1.0000 </r>
       <r>   -7.5581    1.0000 </r>
       <r>   -7.5490    1.0000 </r>
       <r>   -7.5246    1.0000 </r>
       <r>   -7.5140    1.0000 </r>
       <r>   -7.4944    1.0000 </r>
       <r>   -7.4778    1.0000 </r>
       <r>   -7.4548    1.0000 </r>
       <r>   -7.4471    1.0000 </r>
       <r>   -7.4302    1.0000 </r>
       <r>   -7.4096    1.0000 </r>
       <r>   -7.4006    1.0000 </r>
       <r>   -7.3888    1.0000 </r>
       <r>   -7.3858    1.0000 </r>
       <r>   -7.3759    1.0000 </r>
       <r>   -7.3670    1.0000 </r>
       <r>   -7.3509    1.0000 </r>
       <r>   -7.3378    1.0000 </r>
       <r>   -7.3200    1.0000 </r>
       <r>   -7.2996    1.0000 </r>
       <r>   -7.2885    1.0000 </r>
       <r>   -7.2687    1.0000 </r>
       <r>   -7.2554    1.0000 </r>
       <r>   -7.2370    1.0000 </r>
       <r>   -7.2219    1.0000 </r>
       <r>   -7.2133    1.0000 </r>
       <r>   -7.1899    1.0000 </r>
       <r>   -7.1753    1.0000 </r>
       <r>   -7.1688    1.0000 </r>
       <r>   -7.1513    1.0000 </r>
       <r>   -7.1403    1.0000 </r>
       <r>   -7.1283    1.0000 </r>
       <r>   -7.1116    1.0000 </r>
       <r>   -7.0843    1.0000 </r>
       <r>   -7.0831    1.0000 </r>
       <r>   -7.0740    1.0000 </r>
       <r>   -7.0586    1.0000 </r>
       <r>   -7.0376    1.0000 </r>
       <r>   -7.0195    1.0000 </r>
       <r>   -7.0137    1.0000 </r>
       <r>   -6.9943    1.0000 </r>
       <r>   -6.9792    1.0000 </r>
       <r>   -6.9752    1.0000 </r>
       <r>   -6.9683    1.0000 </r>
       <r>   -6.9515    1.0000 </r>
       <r>   -6.9437    1.0000 </r>
       <r>   -6.9357    1.0000 </r>
       <r>   -6.9214    1.0000 </r>
       <r>   -6.9047    1.0000 </r>
       <r>   -6.8933    1.0000 </r>
       <r>   -6.8850    1.0000 </r>
       <r>   -6.8787    1.0000 </r>
       <r>   -6.8709    1.0000 </r>
       <r>   -6.8612    1.0000 </r>
       <r>   -6.8551    1.0000 </r>
       <r>   -6.8448    1.0000 </r>
       <r>   -6.8379    1.0000 </r>
       <r>   -6.8286    1.0000 </r>
       <r>   -6.8138    1.0000 </r>
       <r>   -6.7958    1.0000 </r>
       <r>   -6.7831    1.0000 </r>
       <r>   -6.7709    1.0000 </r>
       <r>   -6.7568    1.0000 </r>
       <r>   -6.7452    1.0000 </r>
       <r>   -6.7127    1.0000 </r>
       <r>   -6.7042    1.0000 </r>
       <r>   -6.6721    1.0000 </r>
       <r>   -6.6643    1.0000 </r>
       <r>   -6.6480    1.0000 </r>
       <r>   -6.6444    1.0000 </r>
       <r>   -6.6094    1.0000 </r>
       <r>   -6.6057    1.0000 </r>
       <r>   -6.5745    1.0000 </r>
       <r>   -6.5694    1.0000 </r>
       <r>   -6.5415    1.0000 </r>
       <r>   -6.5298    1.0000 </r>
       <r>   -6.5236    1.0000 </r>
       <r>   -6.5149    1.0000 </r>
       <r>   -6.4837    1.0000 </r>
       <r>   -6.4716    1.0000 </r>
       <r>   -6.4508    1.0000 </r>
       <r>   -6.4388    1.0000 </r>
       <r>   -6.4304    1.0000 </r>
       <r>   -6.4051    1.0000 </r>
       <r>   -6.3929    1.0000 </r>
       <r>   -6.3846    1.0000 </r>
       <r>   -6.3758    1.0000 </r>
       <r>   -6.3676    1.0000 </r>
       <r>   -6.3603    1.0000 </r>
       <r>   -6.3496    1.0000 </r>
       <r>   -6.3372    1.0000 </r>
       <r>   -6.3311    1.0000 </r>
       <r>   -6.3140    1.0000 </r>
       <r>   -6.3043    1.0000 </r>
       <r>   -6.2844    1.0000 </r>
       <r>   -6.2824    1.0000 </r>
       <r>   -6.2788    1.0000 </r>
       <r>   -6.2610    1.0000 </r>
       <r>   -6.2436    1.0000 </r>
       <r>   -6.2351    1.0000 </r>
       <r>   -6.2302    1.0000 </r>
       <r>   -6.2198    1.0000 </r>
       <r>   -6.2100    1.0000 </r>
       <r>   -6.1999    1.0000 </r>
       <r>   -6.1912    1.0000 </r>
       <r>   -6.1673    1.0000 </r>
       <r>   -6.1601    1.0000 </r>
       <r>   -6.1503    1.0000 </r>
       <r>   -6.1440    1.0000 </r>
       <r>   -6.1223    1.0000 </r>
       <r>   -6.0941    1.0000 </r>
       <r>   -6.0897    1.0000 </r>
       <r>   -6.0846    1.0000 </r>
       <r>   -6.0745    1.0000 </r>
       <r>   -6.0660    1.0000 </r>
       <r>   -6.0554    1.0000 </r>
       <r>   -6.0445    1.0000 </r>
       <r>   -6.0311    1.0000 </r>
       <r>   -6.0166    1.0000 </r>
       <r>   -6.0057    1.0000 </r>
       <r>   -5.9942    1.0000 </r>
       <r>   -5.9837    1.0000 </r>
       <r>   -5.9605    1.0000 </r>
       <r>   -5.9498    1.0000 </r>
       <r>   -5.9454    1.0000 </r>
       <r>   -5.9280    1.0000 </r>
       <r>   -5.9167    1.0000 </r>
       <r>   -5.9085    1.0000 </r>
       <r>   -5.8966    1.0000 </r>
       <r>   -5.8806    1.0000 </r>
       <r>   -5.8632    1.0000 </r>
       <r>   -5.8596    1.0000 </r>
       <r>   -5.8400    1.0000 </r>
       <r>   -5.8342    1.0000 </r>
       <r>   -5.8158    1.0000 </r>
       <r>   -5.7992    1.0000 </r>
       <r>   -5.7888    1.0000 </r>
       <r>   -5.7746    1.0000 </r>
       <r>   -5.7609    1.0000 </r>
       <r>   -5.7473    1.0000 </r>
       <r>   -5.7375    1.0000 </r>
       <r>   -5.7250    1.0000 </r>
       <r>   -5.7219    1.0000 </r>
       <r>   -5.6986    1.0000 </r>
       <r>   -5.6837    1.0000 </r>
       <r>   -5.6634    1.0000 </r>
       <r>   -5.6428    1.0000 </r>
       <r>   -5.6195    1.0000 </r>
       <r>   -5.5888    1.0000 </r>
       <r>   -5.5811    1.0000 </r>
       <r>   -5.5730    1.0000 </r>
       <r>   -5.5527    1.0000 </r>
       <r>   -5.4959    1.0000 </r>
       <r>   -5.3630    1.0000 </r>
       <r>   -5.3591    1.0000 </r>
       <r>   -4.8031    1.0000 </r>
       <r>   -4.3695    1.0000 </r>
       <r>   -4.0764    1.0000 </r>
       <r>   -3.8173    1.0000 </r>
       <r>   -3.7398    1.0000 </r>
       <r>   -3.6154    1.0000 </r>
       <r>   -3.4954    1.0000 </r>
       <r>   -3.4882    1.0000 </r>
       <r>   -3.4483    1.0000 </r>
       <r>   -3.3901    1.0000 </r>
       <r>   -3.2919    1.0000 </r>
       <r>   -3.2645    1.0000 </r>
       <r>   -3.1425    1.0000 </r>
       <r>   -3.1188    1.0000 </r>
       <r>   -3.1023    1.0000 </r>
       <r>   -3.0661    1.0000 </r>
       <r>   -2.9591    1.0000 </r>
       <r>   -2.9350    1.0000 </r>
       <r>   -2.9015    1.0000 </r>
       <r>   -2.8177    1.0000 </r>
       <r>   -2.7653    1.0000 </r>
       <r>   -2.7398    1.0000 </r>
       <r>   -2.7270    1.0000 </r>
       <r>   -2.6744    1.0000 </r>
       <r>   -2.6654    1.0000 </r>
       <r>   -2.6368    1.0000 </r>
       <r>   -2.6249    1.0000 </r>
       <r>   -2.5654    1.0000 </r>
       <r>   -2.4800    1.0000 </r>
       <r>   -2.4639    1.0000 </r>
       <r>   -2.4307    1.0000 </r>
       <r>   -2.3992    1.0000 </r>
       <r>   -2.3651    1.0000 </r>
       <r>   -2.3561    1.0000 </r>
       <r>   -2.3319    1.0000 </r>
       <r>   -2.3221    1.0000 </r>
       <r>   -2.2837    1.0000 </r>
       <r>   -2.2304    1.0000 </r>
       <r>   -2.1637    1.0000 </r>
       <r>   -2.1370    1.0000 </r>
       <r>   -2.0982    1.0000 </r>
       <r>   -2.0381    1.0000 </r>
       <r>   -1.9808    1.0000 </r>
       <r>   -1.9277    1.0000 </r>
       <r>   -1.8893    1.0000 </r>
       <r>   -1.8646    1.0000 </r>
       <r>   -1.8493    1.0000 </r>
       <r>   -1.8046    1.0000 </r>
       <r>   -1.7875    1.0000 </r>
       <r>   -1.7576    1.0000 </r>
       <r>   -1.6261    1.0000 </r>
       <r>   -1.5912    1.0000 </r>
       <r>   -1.5456    1.0000 </r>
       <r>   -1.4878    1.0000 </r>
       <r>   -1.4168    1.0000 </r>
       <r>   -1.3770    1.0000 </r>
       <r>   -1.3200    1.0000 </r>
       <r>   -1.2865    1.0000 </r>
       <r>   -1.1574    1.0000 </r>
       <r>   -0.9757    1.0000 </r>
       <r>   -0.8264    1.0000 </r>
       <r>   -0.7671    1.0000 </r>
       <r>   -0.6514    1.0000 </r>
       <r>   -0.6209    1.0000 </r>
       <r>   -0.5763    1.0000 </r>
       <r>   -0.5326    1.0000 </r>
       <r>   -0.4899    1.0000 </r>
       <r>   -0.3426    1.0000 </r>
       <r>   -0.2049    1.0000 </r>
       <r>   -0.1170    1.0000 </r>
       <r>   -0.0413    1.0000 </r>
       <r>   -0.0050    1.0000 </r>
       <r>    0.1535    1.0000 </r>
       <r>    0.2085    1.0000 </r>
       <r>    0.2719    1.0000 </r>
       <r>    0.3030    1.0000 </r>
       <r>    0.4178    1.0000 </r>
       <r>    0.4489    1.0000 </r>
       <r>    0.5351    1.0000 </r>
       <r>    0.5983    1.0000 </r>
       <r>    0.6402    1.0000 </r>
       <r>    0.6914    1.0000 </r>
       <r>    0.7351    1.0000 </r>
       <r>    0.8010    1.0000 </r>
       <r>    0.8152    1.0000 </r>
       <r>    0.8974    1.0000 </r>
       <r>    1.0244    1.0000 </r>
       <r>    1.1120    1.0000 </r>
       <r>    1.1699    1.0000 </r>
       <r>    1.2167    1.0000 </r>
       <r>    1.2455    1.0000 </r>
       <r>    1.3583    1.0000 </r>
       <r>    1.3754    1.0000 </r>
       <r>    1.4643    1.0000 </r>
       <r>    1.4732    1.0000 </r>
       <r>    1.5053    1.0000 </r>
       <r>    1.5662    1.0000 </r>
       <r>    1.5932    1.0000 </r>
       <r>    1.6091    1.0000 </r>
       <r>    1.6537    1.0000 </r>
       <r>    1.7608    1.0000 </r>
       <r>    1.8193    1.0000 </r>
       <r>    1.8836    1.0000 </r>
       <r>    1.9051    1.0000 </r>
       <r>    1.9467    0.9994 </r>
       <r>    1.9739    0.9936 </r>
       <r>    2.0087    0.9342 </r>
       <r>    2.0345    0.7819 </r>
       <r>    2.0832    0.2737 </r>
       <r>    2.1370    0.0169 </r>
       <r>    2.1875    0.0002 </r>
       <r>    2.2453    0.0000 </r>
       <r>    2.2813    0.0000 </r>
       <r>    2.3195    0.0000 </r>
       <r>    2.3381    0.0000 </r>
       <r>    2.4357    0.0000 </r>
       <r>    2.4491    0.0000 </r>
       <r>    2.4674    0.0000 </r>
       <r>    2.5301    0.0000 </r>
       <r>    2.5613    0.0000 </r>
       <r>    2.6446    0.0000 </r>
       <r>    2.6788    0.0000 </r>
       <r>    2.7309    0.0000 </r>
       <r>    2.7887    0.0000 </r>
       <r>    2.8132    0.0000 </r>
       <r>    2.8365    0.0000 </r>
       <r>    2.8840    0.0000 </r>
       <r>    2.9510    0.0000 </r>
       <r>    2.9591    0.0000 </r>
       <r>    3.0092    0.0000 </r>
       <r>    3.0672    0.0000 </r>
       <r>    3.1172    0.0000 </r>
       <r>    3.1338    0.0000 </r>
       <r>    3.1930    0.0000 </r>
       <r>    3.2532    0.0000 </r>
       <r>    3.2910    0.0000 </r>
       <r>    3.3710    0.0000 </r>
       <r>    3.4410    0.0000 </r>
       <r>    3.4993    0.0000 </r>
       <r>    3.5488    0.0000 </r>
       <r>    3.6107    0.0000 </r>
       <r>    3.6956    0.0000 </r>
       <r>    3.7721    0.0000 </r>
       <r>    3.8755    0.0000 </r>
       <r>    3.9407    0.0000 </r>
       <r>    3.9892    0.0000 </r>
       <r>    4.0728    0.0000 </r>
       <r>    4.1033    0.0000 </r>
       <r>    4.2196    0.0000 </r>
       <r>    4.2513    0.0000 </r>
       <r>    4.3849    0.0000 </r>
       <r>    4.5314    0.0000 </r>
       <r>    4.5833    0.0000 </r>
       <r>    4.6036    0.0000 </r>
       <r>    4.6646    0.0000 </r>
       <r>    4.7031    0.0000 </r>
       <r>    4.7428    0.0000 </r>
       <r>    4.8678    0.0000 </r>
       <r>    4.9887    0.0000 </r>
       <r>    5.0193    0.0000 </r>
       <r>    5.1633    0.0000 </r>
       <r>    5.5742    0.0000 </r>
       <r>    5.6396    0.0000 </r>
       <r>    5.7503    0.0000 </r>
       <r>    5.7925    0.0000 </r>
       <r>    5.9291    0.0000 </r>
       <r>    5.9608    0.0000 </r>
       <r>    6.0886    0.0000 </r>
       <r>    6.2351    0.0000 </r>
       <r>    6.3390    0.0000 </r>
       <r>    6.3901    0.0000 </r>
       <r>    6.5754    0.0000 </r>
       <r>    6.6477    0.0000 </r>
       <r>    6.7344    0.0000 </r>
       <r>    6.7773    0.0000 </r>
       <r>    6.8097    0.0000 </r>
       <r>    6.8959    0.0000 </r>
       <r>    7.0405    0.0000 </r>
       <r>    7.0870    0.0000 </r>
       <r>    7.1103    0.0000 </r>
       <r>    7.2000    0.0000 </r>
       <r>    7.3184    0.0000 </r>
       <r>    7.4044    0.0000 </r>
       <r>    7.4620    0.0000 </r>
       <r>    7.5110    0.0000 </r>
       <r>    7.5822    0.0000 </r>
       <r>    7.6017    0.0000 </r>
       <r>    7.6577    0.0000 </r>
       <r>    7.6692    0.0000 </r>
       <r>    7.8126    0.0000 </r>
       <r>    7.8344    0.0000 </r>
       <r>    7.9516    0.0000 </r>
       <r>    7.9713    0.0000 </r>
       <r>    7.9805    0.0000 </r>
       <r>    8.0564    0.0000 </r>
       <r>    8.1463    0.0000 </r>
       <r>    8.2071    0.0000 </r>
       <r>    8.2217    0.0000 </r>
       <r>    8.2852    0.0000 </r>
       <r>    8.3219    0.0000 </r>
      </set>
     </set>
    </set>
   </array>
  </eigenvalues>
  <separator name="orbital magnetization" >
   <v name="MAGDIPOLOUT">      0.00000000      0.00000000      0.00000000</v>
  </separator>
  <dos>
   <i name="efermi">      2.06197982 </i>
   <total>
    <array>
     <dimension dim="1">gridpoints</dimension>
     <dimension dim="2">spin</dimension>
     <field>energy</field>
     <field>total</field>
     <field>integrated</field>
     <set>
      <set comment="spin 1">
       <r>   -13.9043     0.0000     0.0000 </r>
       <r>   -13.8267     0.0000     0.0000 </r>
       <r>   -13.7491     0.0000     0.0000 </r>
       <r>   -13.6715     0.0000     0.0000 </r>
       <r>   -13.5938     0.0000     0.0000 </r>
       <r>   -13.5162     0.0000     0.0000 </r>
       <r>   -13.4386     0.0000     0.0000 </r>
       <r>   -13.3610     0.0000     0.0000 </r>
       <r>   -13.2834     0.0000     0.0000 </r>
       <r>   -13.2058     0.0000     0.0000 </r>
       <r>   -13.1282     0.0000     0.0000 </r>
       <r>   -13.0505     0.0000     0.0000 </r>
       <r>   -12.9729     0.0042     0.0003 </r>
       <r>   -12.8953     2.0883     0.1624 </r>
       <r>   -12.8177    18.2037     1.5753 </r>
       <r>   -12.7401     5.4364     1.9972 </r>
       <r>   -12.6625     0.0355     2.0000 </r>
       <r>   -12.5849     0.0015     2.0001 </r>
       <r>   -12.5072     1.3974     2.1086 </r>
       <r>   -12.4296    28.1270     4.2917 </r>
       <r>   -12.3520    41.1770     7.4876 </r>
       <r>   -12.2744    13.7971     8.5585 </r>
       <r>   -12.1968    17.2102     9.8943 </r>
       <r>   -12.1192     4.1491    10.2163 </r>
       <r>   -12.0415    25.0370    12.1596 </r>
       <r>   -11.9639    41.7821    15.4025 </r>
       <r>   -11.8863    17.1700    16.7351 </r>
       <r>   -11.8087    36.9556    19.6035 </r>
       <r>   -11.7311    19.5138    21.1180 </r>
       <r>   -11.6535    34.0889    23.7639 </r>
       <r>   -11.5759    36.1848    26.5723 </r>
       <r>   -11.4982    17.4574    27.9273 </r>
       <r>   -11.4206     1.9407    28.0779 </r>
       <r>   -11.3430    16.1950    29.3349 </r>
       <r>   -11.2654     8.9829    30.0321 </r>
       <r>   -11.1878    14.0044    31.1191 </r>
       <r>   -11.1102    14.3014    32.2291 </r>
       <r>   -11.0325    22.3879    33.9667 </r>
       <r>   -10.9549    23.4653    35.7880 </r>
       <r>   -10.8773    19.3362    37.2888 </r>
       <r>   -10.7997    10.5482    38.1075 </r>
       <r>   -10.7221    17.5941    39.4730 </r>
       <r>   -10.6445    10.4146    40.2814 </r>
       <r>   -10.5669    18.8047    41.7409 </r>
       <r>   -10.4892     3.3485    42.0008 </r>
       <r>   -10.4116     4.4310    42.3447 </r>
       <r>   -10.3340    18.6083    43.7890 </r>
       <r>   -10.2564     4.1825    44.1136 </r>
       <r>   -10.1788    23.3034    45.9223 </r>
       <r>   -10.1012    40.5450    49.0692 </r>
       <r>   -10.0235    29.9448    51.3934 </r>
       <r>    -9.9459    25.3701    53.3625 </r>
       <r>    -9.8683    17.3628    54.7101 </r>
       <r>    -9.7907    15.8723    55.9421 </r>
       <r>    -9.7131    11.8243    56.8598 </r>
       <r>    -9.6355    36.5565    59.6971 </r>
       <r>    -9.5579    23.2342    61.5005 </r>
       <r>    -9.4802     6.5946    62.0123 </r>
       <r>    -9.4026    10.6318    62.8375 </r>
       <r>    -9.3250    14.3923    63.9546 </r>
       <r>    -9.2474     4.3250    64.2903 </r>
       <r>    -9.1698    19.8991    65.8347 </r>
       <r>    -9.0922    20.4004    67.4181 </r>
       <r>    -9.0145    21.3087    69.0720 </r>
       <r>    -8.9369    11.6760    69.9782 </r>
       <r>    -8.8593     0.2803    70.0000 </r>
       <r>    -8.7817     0.0001    70.0000 </r>
       <r>    -8.7041     0.0000    70.0000 </r>
       <r>    -8.6265     0.0000    70.0000 </r>
       <r>    -8.5489     0.0013    70.0001 </r>
       <r>    -8.4712     1.1810    70.0918 </r>
       <r>    -8.3936    16.7181    71.3893 </r>
       <r>    -8.3160     7.7795    71.9932 </r>
       <r>    -8.2384     0.1615    72.0057 </r>
       <r>    -8.1608     7.3991    72.5800 </r>
       <r>    -8.0832    28.5432    74.7954 </r>
       <r>    -8.0056    54.7224    79.0427 </r>
       <r>    -7.9279    67.9759    84.3186 </r>
       <r>    -7.8503    86.5697    91.0378 </r>
       <r>    -7.7727    95.3292    98.4368 </r>
       <r>    -7.6951   112.4178   107.1621 </r>
       <r>    -7.6175   114.8051   116.0727 </r>
       <r>    -7.5399   143.5675   127.2157 </r>
       <r>    -7.4622   124.9073   136.9105 </r>
       <r>    -7.3846   151.8185   148.6939 </r>
       <r>    -7.3070   151.0491   160.4176 </r>
       <r>    -7.2294   127.1576   170.2870 </r>
       <r>    -7.1518   139.0223   181.0772 </r>
       <r>    -7.0742   142.2022   192.1143 </r>
       <r>    -6.9966   146.5557   203.4892 </r>
       <r>    -6.9189   178.4271   217.3379 </r>
       <r>    -6.8413   202.9734   233.0917 </r>
       <r>    -6.7637   161.3504   245.6150 </r>
       <r>    -6.6861   115.5013   254.5797 </r>
       <r>    -6.6085   120.1455   263.9048 </r>
       <r>    -6.5309   123.0984   273.4591 </r>
       <r>    -6.4532   127.4746   283.3531 </r>
       <r>    -6.3756   156.7340   295.5180 </r>
       <r>    -6.2980   187.7673   310.0916 </r>
       <r>    -6.2204   186.0734   324.5338 </r>
       <r>    -6.1428   170.3952   337.7590 </r>
       <r>    -6.0652   165.3716   350.5944 </r>
       <r>    -5.9876   169.4746   363.7482 </r>
       <r>    -5.9099   161.2197   376.2613 </r>
       <r>    -5.8323   157.3271   388.4723 </r>
       <r>    -5.7547   152.0853   400.2764 </r>
       <r>    -5.6771   141.0025   411.2204 </r>
       <r>    -5.5995   101.8509   419.1255 </r>
       <r>    -5.5219    85.6569   425.7738 </r>
       <r>    -5.4442    27.2773   427.8910 </r>
       <r>    -5.3666    23.9550   429.7502 </r>
       <r>    -5.2890    27.9075   431.9163 </r>
       <r>    -5.2114     1.0780   432.0000 </r>
       <r>    -5.1338     0.0006   432.0000 </r>
       <r>    -5.0562     0.0000   432.0000 </r>
       <r>    -4.9786     0.0000   432.0000 </r>
       <r>    -4.9009     0.0728   432.0057 </r>
       <r>    -4.8233     7.2374   432.5674 </r>
       <r>    -4.7457    17.1114   433.8955 </r>
       <r>    -4.6681     1.3447   433.9999 </r>
       <r>    -4.5905     0.0017   434.0000 </r>
       <r>    -4.5129     0.0006   434.0001 </r>
       <r>    -4.4352     0.8126   434.0631 </r>
       <r>    -4.3576    15.4703   435.2639 </r>
       <r>    -4.2800     9.3385   435.9887 </r>
       <r>    -4.2024     0.1507   436.0004 </r>
       <r>    -4.1248     2.1990   436.1710 </r>
       <r>    -4.0472    18.3004   437.5914 </r>
       <r>    -3.9696     5.2319   437.9975 </r>
       <r>    -3.8919     0.4798   438.0347 </r>
       <r>    -3.8143    13.7481   439.1018 </r>
       <r>    -3.7367    25.0727   441.0478 </r>
       <r>    -3.6591    14.7736   442.1945 </r>
       <r>    -3.5815    19.2247   443.6866 </r>
       <r>    -3.5039    24.4545   445.5847 </r>
       <r>    -3.4263    52.2872   449.6429 </r>
       <r>    -3.3486    28.8130   451.8793 </r>
       <r>    -3.2710    31.1629   454.2980 </r>
       <r>    -3.1934    23.7997   456.1452 </r>
       <r>    -3.1158    42.9650   459.4799 </r>
       <r>    -3.0382    51.8396   463.5035 </r>
       <r>    -2.9606    26.0882   465.5283 </r>
       <r>    -2.8829    48.5107   469.2935 </r>
       <r>    -2.8053    29.8974   471.6140 </r>
       <r>    -2.7277    58.7580   476.1745 </r>
       <r>    -2.6501    75.0789   482.0018 </r>
       <r>    -2.5725    59.6828   486.6341 </r>
       <r>    -2.4949    31.5732   489.0846 </r>
       <r>    -2.4173    61.9133   493.8900 </r>
       <r>    -2.3396    83.2123   500.3486 </r>
       <r>    -2.2620    68.8151   505.6897 </r>
       <r>    -2.1844    36.9165   508.5550 </r>
       <r>    -2.1068    49.0036   512.3584 </r>
       <r>    -2.0292    38.1667   515.3207 </r>
       <r>    -1.9516    36.7535   518.1734 </r>
       <r>    -1.8739    56.3570   522.5475 </r>
       <r>    -1.7963    71.0860   528.0649 </r>
       <r>    -1.7187    46.4539   531.6704 </r>
       <r>    -1.6411    14.9925   532.8341 </r>
       <r>    -1.5635    42.5152   536.1339 </r>
       <r>    -1.4859    36.9645   539.0029 </r>
       <r>    -1.4083    32.9000   541.5564 </r>
       <r>    -1.3306    41.4201   544.7713 </r>
       <r>    -1.2530    36.5071   547.6048 </r>
       <r>    -1.1754    12.9368   548.6089 </r>
       <r>    -1.0978    16.7479   549.9088 </r>
       <r>    -1.0202     3.8575   550.2082 </r>
       <r>    -0.9426    18.6055   551.6522 </r>
       <r>    -0.8649     8.0746   552.2790 </r>
       <r>    -0.7873    26.0035   554.2972 </r>
       <r>    -0.7097    22.0082   556.0054 </r>
       <r>    -0.6321    29.3763   558.2854 </r>
       <r>    -0.5545    47.8722   562.0011 </r>
       <r>    -0.4769    40.7947   565.1674 </r>
       <r>    -0.3993    11.9951   566.0984 </r>
       <r>    -0.3216    17.3784   567.4472 </r>
       <r>    -0.2440    10.5201   568.2637 </r>
       <r>    -0.1664    20.9112   569.8867 </r>
       <r>    -0.0888    24.2834   571.7715 </r>
       <r>    -0.0112    34.6920   574.4641 </r>
       <r>     0.0664    19.3774   575.9681 </r>
       <r>     0.1441    11.4573   576.8574 </r>
       <r>     0.2217    32.9247   579.4128 </r>
       <r>     0.2993    39.3626   582.4680 </r>
       <r>     0.3769    22.9457   584.2489 </r>
       <r>     0.4545    33.5015   586.8491 </r>
       <r>     0.5321    27.4131   588.9768 </r>
       <r>     0.6097    34.1777   591.6295 </r>
       <r>     0.6874    42.0633   594.8943 </r>
       <r>     0.7650    40.3700   598.0276 </r>
       <r>     0.8426    43.9699   601.4403 </r>
       <r>     0.9202    26.2949   603.4812 </r>
       <r>     0.9978    12.4761   604.4496 </r>
       <r>     1.0754    22.0362   606.1599 </r>
       <r>     1.1530    29.7487   608.4689 </r>
       <r>     1.2307    44.1556   611.8960 </r>
       <r>     1.3083    28.7725   614.1292 </r>
       <r>     1.3859    34.9150   616.8391 </r>
       <r>     1.4635    40.6075   619.9909 </r>
       <r>     1.5411    55.2615   624.2800 </r>
       <r>     1.6187    59.9047   628.9295 </r>
       <r>     1.6964    37.2883   631.8237 </r>
       <r>     1.7740    21.5028   633.4926 </r>
       <r>     1.8516    34.0144   636.1327 </r>
       <r>     1.9292    51.8933   640.1604 </r>
       <r>     2.0068    62.0703   644.9780 </r>
       <r>     2.0844    51.5093   648.9759 </r>
       <r>     2.1620    38.7824   651.9860 </r>
       <r>     2.2397    38.7898   654.9967 </r>
       <r>     2.3173    53.5686   659.1544 </r>
       <r>     2.3949    40.1590   662.2714 </r>
       <r>     2.4725    53.5113   666.4247 </r>
       <r>     2.5501    48.1724   670.1636 </r>
       <r>     2.6277    32.9297   672.7194 </r>
       <r>     2.7054    41.6471   675.9519 </r>
       <r>     2.7830    42.5436   679.2539 </r>
       <r>     2.8606    58.6473   683.8058 </r>
       <r>     2.9382    43.5624   687.1869 </r>
       <r>     3.0158    50.7245   691.1239 </r>
       <r>     3.0934    40.7075   694.2834 </r>
       <r>     3.1710    49.5752   698.1312 </r>
       <r>     3.2487    37.1212   701.0124 </r>
       <r>     3.3263    36.5467   703.8490 </r>
       <r>     3.4039    27.0345   705.9473 </r>
       <r>     3.4815    31.8450   708.4189 </r>
       <r>     3.5591    36.8995   711.2829 </r>
       <r>     3.6367    30.1337   713.6217 </r>
       <r>     3.7144    24.2362   715.5028 </r>
       <r>     3.7920    24.9211   717.4371 </r>
       <r>     3.8696    18.9376   718.9069 </r>
       <r>     3.9472    31.3154   721.3375 </r>
       <r>     4.0248    32.6328   723.8703 </r>
       <r>     4.1024    34.9051   726.5795 </r>
       <r>     4.1800    21.8431   728.2748 </r>
       <r>     4.2577    33.3137   730.8605 </r>
       <r>     4.3353    16.5119   732.1421 </r>
       <r>     4.4129    18.4341   733.5728 </r>
       <r>     4.4905     8.7910   734.2551 </r>
       <r>     4.5681    31.3910   736.6916 </r>
       <r>     4.6457    47.6927   740.3932 </r>
       <r>     4.7234    45.4249   743.9189 </r>
       <r>     4.8010    26.2091   745.9531 </r>
       <r>     4.8786    16.6034   747.2418 </r>
       <r>     4.9562    15.1788   748.4199 </r>
       <r>     5.0338    34.7444   751.1166 </r>
       <r>     5.1114    13.0861   752.1323 </r>
       <r>     5.1890    18.0427   753.5327 </r>
       <r>     5.2667     5.9763   753.9965 </r>
       <r>     5.3443     0.0448   754.0000 </r>
       <r>     5.4219     0.0002   754.0000 </r>
       <r>     5.4995     0.4477   754.0348 </r>
       <r>     5.5771    14.2844   755.1435 </r>
       <r>     5.6547    27.9767   757.3149 </r>
       <r>     5.7323    17.7449   758.6922 </r>
       <r>     5.8100    33.4490   761.2883 </r>
       <r>     5.8876    12.6638   762.2712 </r>
       <r>     5.9652    32.4755   764.7918 </r>
       <r>     6.0428    17.8055   766.1738 </r>
       <r>     6.1204    18.8061   767.6334 </r>
       <r>     6.1980     8.5018   768.2933 </r>
       <r>     6.2757    19.7176   769.8237 </r>
       <r>     6.3533    23.0135   771.6099 </r>
       <r>     6.4309    27.4635   773.7415 </r>
       <r>     6.5085     4.0764   774.0579 </r>
       <r>     6.5861    16.2704   775.3207 </r>
       <r>     6.6637    26.5982   777.3851 </r>
       <r>     6.7413    27.3719   779.5096 </r>
       <r>     6.8190    44.7146   782.9801 </r>
       <r>     6.8966    26.0262   785.0002 </r>
       <r>     6.9742    13.3397   786.0355 </r>
       <r>     7.0518    21.0372   787.6683 </r>
       <r>     7.1294    45.6865   791.2143 </r>
       <r>     7.2070    24.9614   793.1517 </r>
       <r>     7.2847    15.1048   794.3241 </r>
       <r>     7.3623    21.9025   796.0240 </r>
       <r>     7.4399    28.8146   798.2605 </r>
       <r>     7.5175    36.7479   801.1127 </r>
       <r>     7.5951    40.2138   804.2339 </r>
       <r>     7.6727    53.0957   808.3549 </r>
       <r>     7.7503    22.0362   810.0652 </r>
       <r>     7.8280    27.4025   812.1921 </r>
       <r>     7.9056    26.3550   814.2376 </r>
       <r>     7.9832    48.3635   817.9914 </r>
       <r>     8.0608    39.7783   821.0788 </r>
       <r>     8.1384    23.1274   822.8738 </r>
       <r>     8.2160    41.2842   826.0781 </r>
       <r>     8.2937    44.8167   829.5566 </r>
       <r>     8.3713    29.1955   831.8226 </r>
       <r>     8.4489     2.2815   831.9997 </r>
       <r>     8.5265     0.0043   832.0000 </r>
       <r>     8.6041     0.0000   832.0000 </r>
       <r>     8.6817     0.0000   832.0000 </r>
       <r>     8.7593     0.0000   832.0000 </r>
       <r>     8.8370     0.0000   832.0000 </r>
       <r>     8.9146     0.0000   832.0000 </r>
       <r>     8.9922     0.0000   832.0000 </r>
       <r>     9.0698     0.0000   832.0000 </r>
       <r>     9.1474     0.0000   832.0000 </r>
       <r>     9.2250     0.0000   832.0000 </r>
       <r>     9.3027     0.0000   832.0000 </r>
       <r>     9.3803     0.0000   832.0000 </r>
      </set>
     </set>
    </array>
   </total>
  </dos>
 </calculation>
 <structure name="finalpos" >
  <crystal>
   <varray name="basis" >
    <v>       6.25325715     -10.83095910       0.00000000 </v>
    <v>       6.25325715      10.83095910       0.00000000 </v>
    <v>       0.00000000       0.00000000      13.55923482 </v>
   </varray>
   <i name="volume">   1836.70065798 </i>
   <varray name="rec_basis" >
    <v>       0.07995833      -0.04616396       0.00000000 </v>
    <v>       0.07995833       0.04616396       0.00000000 </v>
    <v>       0.00000000       0.00000000       0.07375047 </v>
   </varray>
  </crystal>
  <varray name="positions" >
   <v>       0.22222222       0.11111111       0.25011218 </v>
   <v>       0.11111111       0.22222222       0.00011218 </v>
   <v>       0.22222222       0.11111111       0.43838781 </v>
   <v>       0.11111111       0.22222222       0.18838781 </v>
   <v>       0.22222222       0.11111111       0.75011218 </v>
   <v>       0.11111111       0.22222222       0.50011218 </v>
   <v>       0.22222222       0.11111111       0.93838781 </v>
   <v>       0.11111111       0.22222222       0.68838781 </v>
   <v>       0.22222222       0.44444444       0.25011218 </v>
   <v>       0.11111111       0.55555556       0.00011218 </v>
   <v>       0.22222222       0.44444444       0.43838781 </v>
   <v>       0.11111111       0.55555556       0.18838781 </v>
   <v>       0.22222222       0.44444444       0.75011218 </v>
   <v>       0.11111111       0.55555556       0.50011218 </v>
   <v>       0.22222222       0.44444444       0.93838781 </v>
   <v>       0.11111111       0.55555556       0.68838781 </v>
   <v>       0.22222222       0.77777778       0.25011218 </v>
   <v>       0.11111111       0.88888889       0.00011218 </v>
   <v>       0.22222222       0.77777778       0.43838781 </v>
   <v>       0.11111111       0.88888889       0.18838781 </v>
   <v>       0.22222222       0.77777778       0.75011218 </v>
   <v>       0.11111111       0.88888889       0.50011218 </v>
   <v>       0.22222222       0.77777778       0.93838781 </v>
   <v>       0.11111111       0.88888889       0.68838781 </v>
   <v>       0.55555556       0.11111111       0.25011218 </v>
   <v>       0.44444444       0.22222222       0.00011218 </v>
   <v>       0.55555556       0.11111111       0.43838781 </v>
   <v>       0.44444444       0.22222222       0.18838781 </v>
   <v>       0.55555556       0.11111111       0.75011218 </v>
   <v>       0.44444444       0.22222222       0.50011218 </v>
   <v>       0.55555556       0.11111111       0.93838781 </v>
   <v>       0.44444444       0.22222222       0.68838781 </v>
   <v>       0.55555556       0.44444444       0.25011218 </v>
   <v>       0.44444444       0.55555556       0.00011218 </v>
   <v>       0.55555556       0.44444444       0.43838781 </v>
   <v>       0.44444444       0.55555556       0.18838781 </v>
   <v>       0.55555556       0.44444444       0.75011218 </v>
   <v>       0.44444444       0.55555556       0.50011218 </v>
   <v>       0.55555556       0.44444444       0.93838781 </v>
   <v>       0.44444444       0.55555556       0.68838781 </v>
   <v>       0.55555556       0.77777778       0.25011218 </v>
   <v>       0.44444444       0.88888889       0.00011218 </v>
   <v>       0.55555556       0.77777778       0.43838781 </v>
   <v>       0.44444444       0.88888889       0.18838781 </v>
   <v>       0.55555556       0.77777778       0.75011218 </v>
   <v>       0.44444444       0.88888889       0.50011218 </v>
   <v>       0.55555556       0.77777778       0.93838781 </v>
   <v>       0.44444444       0.88888889       0.68838781 </v>
   <v>       0.88888889       0.11111111       0.25011218 </v>
   <v>       0.77777778       0.22222222       0.00011218 </v>
   <v>       0.88888889       0.11111111       0.43838781 </v>
   <v>       0.77777778       0.22222222       0.18838781 </v>
   <v>       0.88888889       0.11111111       0.75011218 </v>
   <v>       0.77777778       0.22222222       0.50011218 </v>
   <v>       0.88888889       0.11111111       0.93838781 </v>
   <v>       0.77777778       0.22222222       0.68838781 </v>
   <v>       0.88888889       0.44444444       0.25011218 </v>
   <v>       0.77777778       0.55555556       0.00011218 </v>
   <v>       0.88888889       0.44444444       0.43838781 </v>
   <v>       0.77777778       0.55555556       0.18838781 </v>
   <v>       0.88888889       0.44444444       0.75011218 </v>
   <v>       0.77777778       0.55555556       0.50011218 </v>
   <v>       0.88888889       0.44444444       0.93838781 </v>
   <v>       0.77777778       0.55555556       0.68838781 </v>
   <v>       0.88888889       0.77777778       0.25011218 </v>
   <v>       0.77777778       0.88888889       0.00011218 </v>
   <v>       0.88888889       0.77777778       0.43838781 </v>
   <v>       0.77777778       0.88888889       0.18838781 </v>
   <v>       0.88888889       0.77777778       0.75011218 </v>
   <v>       0.77777778       0.88888889       0.50011218 </v>
   <v>       0.88888889       0.77777778       0.93838781 </v>
   <v>       0.77777778       0.88888889       0.68838781 </v>
  </varray>
 </structure>
</modeling>
