72
Lattice="12.39778545 0.0 0.0 -6.19889272 10.73679715 0.0 0.0 0.0 13.44794642" Properties=species:S:1:pos:R:3:forces:R:3 ref_energy_eV=-269.51556336 ref_gap_eV=2.1899 energy=-242.6447785 stress="-0.0025143948661468327 0.0012202120194612692 -0.0010146954392507887 0.0012202120194612692 0.0036133722242865478 0.0017520423114140602 -0.0010146954392507887 0.0017520423114140602 -0.00021419681547259287" free_energy=-242.6447785 pbc="T T T"
Cd       0.01666938       2.44063429      13.38374108      -0.28293163      -0.15187095       0.15649684
Cd       4.22904511       2.30473650      13.40662492       0.04338091       0.04134144      -0.00185879
Cd       8.23738905       2.24048719       0.14542085      -0.30828340      -0.58851853      -0.18230078
Cd      -2.07295485       5.81340081      13.33225037      -0.49067488       0.04848084       0.53490013
Cd       2.14940729       6.10511336       0.14280845       0.12597101       0.25966121      -0.29958499
Cd       6.25501484       5.92579092       0.02423952       0.17147673       0.08622645      -0.08608352
Cd      -4.01885869       9.51714187      13.31842831       0.42958423       0.19722162      -0.02615031
Cd       0.12044530       9.19695158       0.06087401      -0.25096838       0.54076293       0.62371304
Cd       4.23233449       9.63156832      13.33596403       0.36791897      -0.12017821      -0.11203038
Cd       0.00068101       2.53131954       6.70172116      -0.09067778       0.59698012       0.01202790
Cd       4.19118704       2.54403985       6.83728628      -0.15521204       0.08802992      -0.51464151
Cd       8.19154210       2.42992584       6.92347107       0.11015474       0.06504935      -0.76575386
Cd      -2.32078131       5.91038082       6.73072381       0.05638642       0.21503911       0.06094613
Cd       1.90842595       5.91638860       6.81107731      -0.09483593       0.19534876      -0.47233476
Cd       5.91479245       6.11522044       6.69803723       0.24730622      -0.24852154      -0.54088818
Cd      -4.03752021       9.83480140       6.66014791       0.61548889      -0.07199665      -0.32130960
Cd       0.15760152       9.37590017       6.69895963      -0.38846470       0.06128731       0.14854267
Cd       4.51419653       9.66964272       6.78491675      -0.25984262      -0.05022740      -0.45706868
Cd       2.08762931       1.24025135       3.23934833       0.05486621      -0.17937744       0.24305839
Cd       6.15555366       1.27668313       3.66367609       0.18722398      -0.35434350      -0.68344076
Cd      10.08498719       1.21763300       3.40652042       0.70596163      -0.45250639       0.29561689
Cd       0.15003410       4.66535084       3.21289070      -0.43803178       0.27405685       0.43966289
Cd       4.22284014       4.76088042       3.28681447      -0.01992267      -0.01644860      -0.63935105
Cd       8.33252854       4.95743907       3.39545370      -0.42044801      -0.25116807      -0.08256872
Cd      -2.20457297       8.36596696       3.39137117       0.85407530      -0.69952175       0.59571657
Cd       2.02253121       8.37337686       3.42270368      -0.39423831       0.42631728       0.47837664
Cd       6.10095326       8.56717250       3.30815192       0.31959251      -0.32375175      -0.06193000
Cd       2.07130316       1.05928865      10.05616172       0.11416581      -0.31649306      -0.13102009
Cd       6.05917780       1.17312339      10.12420967       0.71034499      -0.54563250       0.37388635
Cd      10.47408642       1.13202304       9.97018174      -0.06299575      -0.11003825       0.36739429
Cd       0.00194645       4.66690263      10.15691831       0.06273192       0.27368823      -0.06626666
Cd       4.01617395       4.76146654      10.14114091      -0.06544016       0.08887244       0.27129869
Cd       7.96550438       4.64380478      10.03434539       1.13721151      -0.43322273       0.26067011
Cd      -2.09477074       8.18068742       9.93607882       0.53431119      -0.34866447       0.48771489
Cd       2.09435282       8.52274653      10.03183667      -0.06231234      -0.23741104      -0.05481170
Cd       6.27591379       8.32420930      10.07996311       0.20136046      -0.21248852      -0.12855498
S       -0.11180627       2.30589286       2.52243669       0.21821603      -0.27168433      -0.21220274
S        4.25059643       2.39654192       2.51535742      -0.59373657      -0.13080168      -0.15031982
S        8.16893332       2.47776461       2.63967333      -0.35560264       0.11752498      -0.08068899
S       -1.99572266       5.93740770       2.59652681       0.26212209       0.18031555      -0.78510034
S        2.13947251       6.03541190       2.61985375      -0.14698664      -0.25719493      -0.11914898
S        6.17625753       6.05843717       2.53129996       0.44504995       0.30954099       0.04353931
S       -4.04372474       9.46695604       2.39054474      -1.22652682       1.01728560       0.10491281
S       -0.15302177       9.59111969       2.64882412       0.86271530      -0.06149913      -0.18655113
S        4.00821910       9.50580757       2.34677612       0.12587660       0.63366596       0.82227812
S        0.08654076       2.29965854       9.21386923       0.13216452       0.50397120       0.11474063
S        4.10513104       2.34900120       9.28222003      -0.23565364       0.50640375       0.31777650
S        8.33398770       2.16389270       9.34632922      -0.81993427       0.55435468       0.25041017
S       -2.12261679       5.75942671       9.22527174      -0.26795544      -0.15115019       0.50021537
S        2.02323273       6.09193663       9.31064321      -0.11163497      -0.64532613       0.02819727
S        6.09786615       5.87743013       9.16150118      -0.48743178       0.52186177       0.29670476
S       -4.01571263       9.40674935       9.08242900      -0.70761885       0.48440707       0.78257327
S       -0.03456279       9.47005651       9.28790919      -0.15684683       0.36081193      -0.35602484
S        4.23655482       9.48662800       9.23370374       0.16129879       0.01373031       0.18834677
S        2.05670309       1.46878376       5.95792130       0.54718664      -0.47913301      -0.87489433
S        6.11478094       1.14379207       6.07699036       0.40612808      -0.03768934       0.37201840
S       10.40731529       1.30929529       6.01467916      -0.88690466      -0.31495968      -0.59149914
S       -0.25766255       4.88434146       5.80796352       1.04102591      -0.14915503      -0.01432442
S        3.97476287       4.79803199       5.67691503       0.03961885       0.20197677       1.55746118
S        8.04517980       4.82795255       5.87325585      -0.36305888      -0.52347043       0.39042440
S       -2.07159215       8.28744780       5.95457034       0.15063641       0.58967671      -0.13655399
S        2.35516298       8.42729630       6.04504140      -0.22714668      -0.38404686      -0.54578609
S        6.50510631       8.43926139       5.83925258      -0.89581687      -0.21319505      -0.32339133
S        2.06170641       1.24404187      12.53899461       0.23236259      -0.31720670       0.33148298
S        6.18278459       0.86680214      12.69865441       0.13558576       0.83681807      -0.26534707
S       10.30534413       1.20363662      12.51231644       0.36908959       0.49176076       0.20121846
S        0.14010198       4.88265803      12.71818863      -0.13559499      -0.47424559      -0.41233206
S        4.11978175       4.80930735      12.74091512       0.16467824      -0.41067943      -0.52353875
S        8.21066408       4.49404331      12.61034928       0.06877990       1.00268971      -0.23805388
S       -1.93086154       8.21258978      12.59021085      -0.72403715      -0.07030798      -0.45953966
S        2.22049613       8.46036413      12.51783682       0.03222239      -0.78200262       0.26217249
S        6.32469362       8.36648415      12.57926960      -0.31650321      -0.39903022      -0.01124845
