72
Lattice="12.39778545 0.0 0.0 -6.19889272 10.73679715 0.0 0.0 0.0 13.44794642" Properties=species:S:1:pos:R:3:forces:R:3 ref_energy_eV=-269.21636134 ref_gap_eV=2.2082 energy=-242.37495882 stress="0.0010724173775186322 0.0027749111254538666 0.0002076309226344192 0.0027749111254538666 -0.0021764730084869307 3.113702281780294e-05 0.0002076309226344192 3.113702281780294e-05 -0.0002613810952945345" free_energy=-242.37495882 pbc="T T T"
Cd       0.04823433       2.29902936      13.36308436       0.00535057       0.16733222      -0.20721681
Cd       4.13010849       2.54835561       0.30967716      -0.10811613      -0.48424029      -0.58236548
Cd       8.22538496       2.32937531       0.04786447       0.29076865       0.22944706       0.14084373
Cd      -2.25819581       6.07897366      13.32431541       0.04269266      -0.03301723       0.17128786
Cd       1.89600331       5.86977404      13.33615929      -0.26421329      -0.01848868       0.52979003
Cd       6.24125980       6.02064483      13.39115426      -0.00615568      -0.81959107       0.22194994
Cd      -4.10105557       9.41097159       0.01564722      -1.11321848       0.61299493       0.24623145
Cd       0.06312742       9.74544355       0.16775399      -0.20396438      -0.07904443      -0.44071178
Cd       4.06246568       9.39190207      13.32759604      -0.63445875       0.21452877       0.34985225
Cd       0.01225019       2.29726155       6.54055169      -0.31530646      -0.98475106       0.39817263
Cd       4.18228612       2.21800680       6.68225096       0.24973218       0.21020493       0.02808660
Cd       8.12762730       2.56767766       6.80621830       0.70636127      -0.24002125       0.39289066
Cd      -1.97857690       6.15220957       6.57876027      -0.17292485      -0.23775006       0.23168006
Cd       2.21927160       5.73794314       6.72385675      -0.65765434       0.26649738       0.26771296
Cd       6.18779646       6.07861666       6.65508530      -0.30920387      -0.30608079       0.64297644
Cd      -4.08206396       9.43404744       6.66873967       0.13634789       0.14607860      -0.03748613
Cd       0.35115079       9.54843513       6.73854998       0.34479044      -0.11193753       0.24690319
Cd       4.13331685       9.39339202       6.83650845      -0.20141637       0.52841801      -0.50142380
Cd       1.68692551       1.03190928       3.16573682       0.20062671       1.43963824       0.78654358
Cd       6.13278253       1.07488546       3.27394034       0.23170411       0.32041895       0.24728497
Cd      10.27382505       1.18905401       3.34350993      -0.46165450       0.49968714      -0.17971974
Cd      -0.12773351       4.78007964       3.51446588       0.78295002      -0.00499369       0.12826451
Cd       4.14978625       4.76976587       3.40968634       0.13040789      -0.37133977      -0.15176350
Cd       8.21840972       4.96045794       3.51560438      -0.07479479      -0.22153006      -1.46942685
Cd      -2.11175973       8.39860779       3.37697300       0.26554855      -0.56567675      -0.03050942
Cd       2.14433548       8.08376292       3.27328113      -0.06235971       0.41802615       0.05062405
Cd       6.00370354       8.36583909       3.29595961       0.15304691       0.65549123       0.08166747
Cd       2.12988295       1.39897407      10.14096097       0.43401341      -0.26439716      -0.25506651
Cd       6.39289891       1.14988166      10.16857472       0.09560431       0.17640801      -0.22561946
Cd      10.50176844       1.15955820      10.30213650       0.27283236       0.56906222      -0.73021420
Cd      -0.13816259       4.84273261      10.12272112       0.32400732      -0.24860135      -0.38529016
Cd       4.18065389       4.77475054      10.16662853       0.49821692      -0.36823060      -0.00005789
Cd       8.39746405       4.95526874       9.98556982      -0.66687218      -0.78024462       0.29872016
Cd      -2.05147420       8.51198096      10.10557862       0.06375664       0.25697193      -0.09959303
Cd       2.11347956       8.19425863      10.13015098       0.05472908       0.18900763       0.15467079
Cd       6.22861623       8.50410649      10.04786891      -0.14618713      -0.33996996      -0.16219042
S       -0.16186009       2.51888214       2.38914347       0.07385380      -0.49338988       0.56308358
S        3.93996340       2.25613972       2.73128895       0.28332299       0.21021145       0.13829804
S        8.10108997       2.55069527       2.51458914       0.19849423      -0.33480131       0.47791836
S       -2.02937986       5.85468057       2.45049273      -0.79023663       1.03577162       0.14608261
S        2.10111420       5.78254003       2.48559564      -0.73031639      -0.22733219      -0.12620155
S        6.10307818       6.10105657       2.50886825       0.40657947      -0.97419834      -0.25762094
S       -4.16628261       9.53940119       2.57793072      -0.31064115      -1.35775506      -0.51257697
S        0.05477757       9.39905246       2.58053061       0.00288667       0.15139086       0.30930691
S        3.99479026       9.59848299       2.47416932       0.10008904      -0.21183386      -0.35856797
S        0.12788651       2.42435742       9.14793879      -0.69571976       0.19630772       0.37017937
S        4.36888425       2.30705769       9.21557564      -0.47684975       0.47454793       0.27661925
S        8.47146680       2.41162293       9.45832224      -0.32449056       0.41602347      -0.84175884
S       -2.10084423       6.15721077       9.17370223       0.86586128       0.21865033      -0.23278412
S        2.15458826       5.88749104       9.25685088      -0.47879887      -0.23099810       0.08269439
S        6.27980421       6.03805294       9.20619650      -0.53159177       0.11721104       0.21942419
S       -4.14800642       9.67550899       9.18705873       0.32601737      -0.00869369       0.23715381
S        0.20227347       9.54505841       9.28088640      -0.58551568      -0.13449448      -0.08159302
S        4.04403742       9.63707995       9.30349979       0.35241947      -0.54777192       0.10261796
S        2.12304842       1.10927295       5.86348188      -0.38865823      -0.07845373      -0.56012587
S        6.35558728       1.12208388       5.88020992      -0.41964646       0.29928423      -0.27112479
S       10.18963237       1.17543449       5.82133454       0.26881928      -0.12297864       0.63231963
S        0.00075497       4.64964248       6.05859693      -0.00864388       0.99112991      -0.61889473
S        4.23407129       4.73188463       5.89715178       0.37976396      -0.82116285      -0.02421219
S        8.19620256       4.93317101       5.87308466       0.91937017      -0.24349592       1.08186121
S       -1.74791752       8.53747098       5.89756382      -1.11558688      -0.41715393      -0.22762246
S        2.19241087       8.07181501       5.78654080       0.00330659       0.51015504       0.44400662
S        6.17205270       8.33336457       5.80894791       0.28984940       0.80859743       0.03882991
S        2.12026890       1.11797502      12.63164357       0.14590690       0.31056115       0.28928025
S        6.17524668       1.30364065      12.65275980      -0.61354556      -0.17676002       0.23607336
S       10.29809248       1.14876353      12.72833175       0.09444695      -0.35928567       0.24521704
S       -0.20828682       4.75844188      12.63147506       0.10917958      -0.23763545      -0.23513844
S        4.02814662       4.83494725      12.78548310       0.67568159      -0.23696434      -0.75986265
S        8.21031719       4.64302711      12.52028126      -0.06869849       0.84077494       0.11287743
S       -2.05345004       8.55801348      12.68095826       0.82151080      -0.93824013      -0.54912293
S        1.82148332       8.23166305      12.65949978       0.71341119       0.57218908      -0.19146208
S        6.11496047       8.29778551      12.59320234       0.62318234       0.58028625      -0.31267255
