72
Lattice="12.39778545 0.0 0.0 -6.19889272 10.73679715 0.0 0.0 0.0 13.44794642" Properties=species:S:1:pos:R:3:forces:R:3 ref_energy_eV=-266.96833674 ref_gap_eV=2.1576 energy=-240.26950825 stress="-0.005227874805598961 0.0001455992597642079 -0.0018293463853794865 0.0001455992597642079 -0.008495620104107813 -0.000741316702903171 -0.0018293463853794865 -0.000741316702903171 -0.007054708128468529" free_energy=-240.26950825 pbc="T T T"
Cd      -0.09728108       2.24361482      13.29199529       1.96951554       1.12769733       1.24305228
Cd       4.13801121       2.36692693      13.41535169       0.12046474       0.06978008       0.37296216
Cd       8.22864892       2.35295761      13.41323485       0.37779117      -0.69224242       0.40107428
Cd      -2.06751923       5.95675391       0.01702174      -0.41886256       0.41938994       0.11541971
Cd       2.10750420       5.99437844      13.42577277      -0.60996161      -0.12286709      -0.27557095
Cd       6.34844783       6.03515797       0.09452172      -0.52222097       0.15458470       0.14180363
Cd      -4.10573350       9.62656476      13.39937244       0.26876420      -0.81928030       0.43429632
Cd      -0.01648576       9.56001616       0.02476197       0.15451253      -0.87886218       0.36484177
Cd       4.18442399       9.54603170       0.15718874      -0.14340794      -0.10640041      -0.55867907
Cd      -0.00102474       2.37998384       6.71996263       0.39908446       0.02896643      -0.17184323
Cd       4.14187008       2.43117882       6.69799608       1.04021352      -1.72556542       0.29467312
Cd       8.18081771       2.52410849       6.80394317       0.23425057      -0.88652605      -0.42141682
Cd      -2.02639478       6.01251181       6.70915330      -0.27020114       0.09812541      -0.13666442
Cd       2.04902664       5.84252330       6.64540896       0.74360619       0.99368984       0.03335050
Cd       6.24114233       5.97870014       6.80649290      -0.15555900      -0.11403269      -2.71800192
Cd      -4.12686652       9.55288972       6.70930701      -1.37183108       1.12370709       0.48292934
Cd       0.07229540       9.43608668       6.69914185      -0.48002447       0.53819220       0.08593882
Cd       4.17260109       9.49206791       6.73821432       0.96281333       0.54751559       0.36189947
Cd       2.20039882       1.11429412       3.31068524      -0.62433523       1.79315843       0.92537079
Cd       6.28172655       1.19605580       3.37975497      -0.08905956      -0.05051188      -0.93314949
Cd      10.35194306       1.20725814       3.38239023      -0.04552256       0.28103681       0.37341669
Cd       0.02309813       4.77810632       3.34703639       1.09097673      -0.70738100       0.12510585
Cd       4.09766286       4.70616431       3.33865536       0.15609896      -0.02800062       0.61967256
Cd       8.22152900       4.88692870       3.24357098       2.04433044      -1.21482254       0.66178071
Cd      -2.17607139       8.37023924       3.39334560       0.53691199      -0.15248973      -0.42569326
Cd       2.06149032       8.32305274       3.40679019       0.03973691       0.28866758      -0.36857454
Cd       6.19891219       8.35483806       3.35887125       0.74279127       0.43175313       0.18029292
Cd       1.92153822       1.13150381       9.98608205       0.75440447       0.49043875       0.39769105
Cd       6.25093900       1.22812210      10.09383708      -0.89988459       0.48594267       0.39884684
Cd      10.29325945       1.15336532      10.08512174      -0.05550025       0.03173575      -0.34791329
Cd      -0.05429883       4.68705324      10.03922834       0.22103211       1.25869346       0.41184243
Cd       4.15159273       4.82686395      10.31027667      -0.22956279      -0.27903840      -2.28969913
Cd       8.23968023       4.80811353      10.10566065      -0.84348329      -0.32484022       0.32566040
Cd      -2.08887305       8.37992254      10.25361348      -0.05804645       0.10005709      -1.33712679
Cd       2.04320489       8.50687819      10.03213374      -0.08075069      -0.82615597       0.24199720
Cd       6.15584873       8.32948998      10.06355917       0.14785255      -0.23747740      -0.02284949
S       -0.00205580       2.38609813       2.56879001       0.50135948      -0.17462031      -0.46837040
S        4.20342130       2.33174717       2.55754874       0.10620150       0.51131092      -0.52480175
S        8.26421055       2.38670519       2.52977429       0.51133480       0.37892776      -0.23190869
S       -1.83487832       5.91837727       2.50486775      -1.94918159       1.11331270       0.09553802
S        2.14187929       5.99559492       2.46184334      -0.07416203      -0.12760599       0.45847510
S        6.29226256       5.99301110       2.73728014      -1.76834768       0.43980333      -1.23488664
S       -4.06554540       9.72460578       2.46685713      -0.51122399      -2.32514677      -0.37806895
S        0.01735318       9.57841742       2.54911136      -0.15044318      -0.58684470       0.04392070
S        4.24415293       9.56240424       2.61957349      -0.80099301       0.00160282      -0.17930015
S       -0.07530477       2.40192481       9.30261868      -0.03254226      -0.32992057      -0.55069658
S        4.07183412       2.34399560       9.14339043       0.22375608       0.18834556       1.35099831
S        8.24046060       2.37505512       9.29105170       0.31473561       0.45503434       0.15271491
S       -2.25538436       5.97757084       9.25135054       1.31268668       0.52644725      -0.08003003
S        2.17825012       6.02955186       9.06795498      -0.63227711       0.00729721       1.51504819
S        6.11003544       5.95741519       9.03715138       0.12556658      -0.06011980       3.60653590
S       -4.21323235       9.57054101       9.21961527       0.32883466      -0.70648038       0.16578128
S       -0.00550443       9.67545155       9.32198857      -0.54893100      -1.00746802      -0.66599910
S        4.12930920       9.54368560       9.26509945       0.21705753       0.09493767      -0.14068354
S        2.21318615       1.27619643       5.89094662      -1.31959762      -0.69794907      -0.30237045
S        6.32362269       1.13160420       5.71869753      -0.34854221       0.10701953       2.06517634
S       10.39043546       1.14528771       5.97703823      -0.44993925       0.50366851      -0.18411959
S        0.07241262       4.84882993       5.85026443      -1.20259628      -0.54404330      -0.01898347
S        4.08606405       4.61521537       6.06048609       0.80000835       2.32863192      -1.71755481
S        8.26045445       4.77141215       5.89737757       0.32482735       0.53574144      -0.49988964
S       -2.27121181       8.48860975       5.87472544       2.31466701      -1.29721717      -0.19445351
S        2.21933595       8.53154137       5.86679868      -1.21479033      -1.50294227      -0.13733446
S        6.22433063       8.33775989       5.86478082       0.01287900      -0.03125962       0.15066211
S        2.17173669       1.10164070      12.62521531      -0.61468526       1.45348397      -0.82582565
S        6.19354283       1.08755337      12.73016524       0.07812094       1.01127523      -0.90043525
S       10.45857970       1.16191053      12.53473457      -2.23771888      -1.06458593       0.07914775
S       -0.15614868       4.73580871      12.73023450       1.50973630      -0.29655424      -0.97508350
S        4.13517038       4.77072360      12.61769993       0.52064076       0.10896458       1.58356888
S        8.27011586       4.68499285      12.77119196      -0.06936479       0.63113968      -0.92034785
S       -2.06804248       8.35046496      12.62124924       0.00606746      -0.21448516       0.96083894
S        2.06637387       8.36718795      12.62468452       0.28741160       0.17191678      -0.11175515
S        6.30524757       8.43353588      12.61186486      -0.67749269      -0.69825587       0.02775631
