72
Lattice="12.39778545 0.0 0.0 -6.19889272 10.73679715 0.0 0.0 0.0 13.44794642" Properties=species:S:1:pos:R:3:forces:R:3 ref_energy_eV=-268.79695262 ref_gap_eV=2.1738 energy=-241.98335057 stress="-0.0007442002489117835 -3.398992925811641e-05 5.7643544913222594e-05 -3.398992925811641e-05 0.0035875243187171095 -0.00045542194944503845 5.7643544913222594e-05 -0.00045542194944503845 -0.004715440827134057" free_energy=-241.98335057 pbc="T T T"
Cd      -0.00380599       2.54191289      13.43331062      -0.33029045      -0.13780689      -0.63095417
Cd       4.23131130       2.42033874      13.24091515       0.38410837      -0.01295676       0.01018265
Cd       8.31240452       2.30841987       0.09396457      -0.45272925       0.43527776       0.36997915
Cd      -2.16913793       6.10293089       0.10922704       0.17839111       0.33743307      -0.40694160
Cd       2.12810405       5.90623653      13.26714927      -0.24961665       0.13672753       0.10415121
Cd       6.34097364       5.90795688      13.30549434       0.63093419       0.26233547       0.14030156
Cd      -4.15723979       9.60733806       0.21191866      -0.32461540      -0.02855015      -0.65865041
Cd       0.03518851       9.43350995       0.04393189       0.01531214       0.24293500       0.04657739
Cd       4.11592437       9.38259767       0.15344241      -0.46719573       0.55212778      -0.29631073
Cd      -0.14312183       2.47208516       6.63681801       0.16480069       0.09647816       0.21488478
Cd       3.98704281       2.35156419       6.68936210       0.71323847      -0.25480334       0.38576276
Cd       8.52776794       2.34288155       6.85197722      -0.10563383      -0.20611295      -1.40875920
Cd      -2.14738260       5.91348816       6.70975523       0.45268822      -0.35715959      -0.22668345
Cd       2.29680952       5.78629297       6.74913580      -0.44892431       0.19876252      -1.06731418
Cd       6.41340572       5.74626093       6.81944193      -0.44267720       0.18918450       0.23330685
Cd      -4.21445483       9.50895249       6.54605836       0.41089997       0.27256720       0.33039913
Cd      -0.02089795       9.70010806       6.72653867      -0.17128528       0.55319374       0.09375944
Cd       4.17491123       9.12036611       6.79798667      -0.19640072       0.64778326       0.43400723
Cd       2.00775837       1.38043387       3.30753775       0.62265178       0.13063207      -0.15352277
Cd       5.98124613       1.15856333       3.36139987       0.15259295       0.09803198       0.22652996
Cd      10.15869265       1.17735434       3.45809074      -0.10325830      -0.01275529      -0.05710804
Cd      -0.11344457       4.57711402       3.20689332      -0.31501690       0.31908207       0.55774888
Cd       4.09300185       4.94916777       3.23222885       0.22316585      -0.00707099       0.00341148
Cd       8.30311585       4.83923284       3.12285025       0.00560829      -0.25067422       0.52234087
Cd      -2.16431773       8.46625380       3.51690762       0.12344304       0.15179558      -0.50917027
Cd       2.07111156       8.17127297       3.53785333      -0.36922876       0.06100472       0.08742879
Cd       6.08952002       8.34839158       3.50651975       0.12015051       0.46227807      -0.84231847
Cd       2.01874665       1.27496546      10.15595261      -0.05731992      -0.03687457      -0.06087190
Cd       6.26794405       1.33363797      10.05900448       0.42020759      -0.62064719       0.23575790
Cd      10.26211838       1.22671708      10.21326682       0.29488180      -0.73504899       0.03035835
Cd      -0.00577464       4.88105299      10.06423439       0.20335425      -0.42211233      -0.40057885
Cd       4.08401426       4.88437560       9.89053601       1.66176676      -1.02279843       0.47809926
Cd       8.38178835       4.79696336      10.05863036      -1.08498037      -0.40473612       0.18122914
Cd      -2.16235082       8.31745103      10.11828949       0.36179960       0.45054657       0.03439246
Cd       2.02517485       8.38219209      10.05572950       0.26025559       0.13406939      -0.71539107
Cd       6.51167478       8.46242774      10.30734569      -1.09357666       0.05154209      -0.68426551
S       -0.12772849       2.26123487       2.44094953      -0.46135774      -0.02507657       0.22022456
S        4.14861435       2.57742624       2.35330792      -0.36132461      -0.42951625       0.24883683
S        8.08514635       2.39507538       2.61836788       0.49982711       0.00531555      -0.20321862
S       -2.04729268       6.10439228       2.50132261       0.05297720      -0.11815540       0.85902632
S        1.82638057       5.85445134       2.42167755       1.11419443       0.55885090      -0.22440690
S        6.32697822       6.14624388       2.43006799      -0.76649702      -0.58011979      -0.28663728
S       -4.29069743       9.70525754       2.60900690       0.40742727      -0.45253393       0.89210748
S        0.05373300       9.50954903       2.57580796      -0.37815189      -0.06730915       0.21606193
S        4.02628020       9.48591100       2.62157562      -0.04105034      -0.01763134       0.19306309
S       -0.11957769       2.39943613       9.26895108       0.51971802       0.32045346      -0.14917109
S        4.20813444       2.27658172       9.27945944      -0.97069695       1.01936467      -0.38800936
S        8.34990348       2.38984667       9.18666000      -0.32892627       0.44176790       1.19511029
S       -2.12137701       5.94484476       9.21220142       0.90724113       0.75428033      -0.23669021
S        2.18568209       5.93360956       9.12237922      -1.83211383       0.76956870       0.72979530
S        6.27263848       6.16632749       9.33059673       0.13073370      -0.98918502      -0.27445950
S       -4.13914281       9.62638975       9.18537828       0.70930134       0.40955156      -0.41955968
S       -0.00374028       9.63409394       9.26252780      -0.38014209      -0.39285622       0.16316705
S        4.19926557       9.46513412       9.31159868       0.16214527       0.24495700       0.14832939
S        1.99218186       1.26582297       5.80913456      -0.26562686      -0.52768331       0.19046454
S        6.29705263       1.43594902       5.91061371      -0.48650503      -0.82655434      -0.06189244
S       10.40284099       0.90253420       5.95236097      -0.04663414       0.26699344      -0.10795192
S        0.08889008       4.87210956       5.76685059      -0.38727901      -0.41422351       0.24121222
S        4.29047322       4.65355379       5.81634939       0.05897637       0.60966907      -0.23666725
S        8.32332244       4.64851758       5.78923940       0.42376494      -0.12945834      -0.31365399
S       -1.99584447       8.26200556       5.98514061      -0.43447257       0.85221143      -0.07532037
S        1.93189614       8.30045629       6.11325826       0.51649518      -0.54496367      -0.77954576
S        6.23037511       8.13158129       5.87829802       0.13322384      -0.12973543       0.66991927
S        2.07939129       1.23192507      12.72440911      -0.22972122       0.23594118      -0.42687106
S        6.38250455       1.08987617      12.56704689      -0.80823461       0.26513893       0.14482556
S       10.22835444       1.13349065      12.73138779       1.30842522      -0.42128349      -0.20964298
S       -0.20729016       4.95211459      12.52758026       1.13534106      -0.48249472       0.36618135
S        4.31270338       4.87808695      12.41846726      -0.73197935      -0.57031233       0.23242831
S        8.55206822       4.66054011      12.55660241      -1.29589644       0.02365663       0.17127268
S       -2.15261955       8.46172116      12.74643873       0.07377246      -0.08928158      -0.75170753
S        2.06754068       8.37009322      12.48744312       0.04482309      -0.45919282       0.86252648
S        6.14124706       8.42202045      12.65900960       0.82072088      -0.38383428       0.79908468
