72
Lattice="12.39778545 0.0 0.0 -6.19889272 10.73679715 0.0 0.0 0.0 13.44794642" Properties=species:S:1:pos:R:3:forces:R:3 ref_energy_eV=-269.22289461 ref_gap_eV=2.2156 energy=-242.37389946 stress="-0.0032553996808389832 -0.0011285804427087045 0.001160843252769052 -0.0011285804427087045 0.00047729009403355786 0.0005026283616583404 0.001160843252769052 0.0005026283616583404 -6.227101850367982e-05" free_energy=-242.37389946 pbc="T T T"
Cd      -0.11840344       2.36732054       0.07067420      -0.13418447       0.30639627       0.13292125
Cd       4.04357393       2.33190994      13.32657198      -0.54583633       0.40954260       0.39985035
Cd       8.17675663       2.58843103       0.12947602      -0.01413831      -0.86493497      -0.16431771
Cd      -2.00521949       6.03524312      13.30226414      -0.80138830      -0.22823126       0.08119991
Cd       2.02825328       5.99759872       0.16473371       0.07575179       0.21328556      -0.12154537
Cd       6.22021810       6.11665767      13.31829047      -0.29708437      -0.13641568      -0.15563265
Cd      -4.05035563       9.41668389       0.03953252       0.54150017       0.62933397       0.02922109
Cd       0.14509271       9.66389446       0.00950837       0.30447901       0.01052869      -0.61115276
Cd       4.19809274       9.58197302       0.14603246      -1.05673458       0.46767766       0.26698111
Cd      -0.06951079       2.36339152       6.50045799       0.60600314       0.24386114       0.29030505
Cd       4.13193524       2.31060287       6.93469634       0.32564112      -0.30030549      -0.01953095
Cd       8.12320092       2.24937178       6.68734827       0.33095534       0.23879463      -0.11658841
Cd      -2.06195194       5.70898116       6.74998329      -0.19909164       0.20771189      -0.22227393
Cd       2.33090281       5.85159718       6.81924936      -0.79109666       0.19105427      -1.49909826
Cd       6.27595507       5.99313039       6.72635134       0.12745247       0.05023137       0.32002172
Cd      -4.24274775       9.54895576       6.58959124       0.42911367       0.04982056       0.22620339
Cd      -0.18048311       9.39583002       6.76933273       0.11811055      -0.61562692      -0.01894617
Cd       4.14091558       9.43654042       6.76117225       0.51547164       0.06927216       0.08017161
Cd       1.99470289       1.39929220       3.38964957       0.01869975      -0.39567006      -0.06662368
Cd       5.94587940       1.12097563       3.39723623       0.23844367       0.51139214      -0.09324545
Cd      10.35865671       1.29934701       3.33014012      -0.48028508      -0.43739368       0.42669547
Cd       0.09969221       5.00348447       3.21169222      -0.60163923      -0.30620427       0.63754820
Cd       4.17636016       4.83625757       3.49483053      -0.23389100      -0.31957995      -0.33018832
Cd       8.27179539       4.98934390       3.17752583      -0.06055488      -0.91426472       0.56262179
Cd      -1.87120625       8.36444867       3.47309744      -0.14556117      -0.06500125      -0.37030746
Cd       2.28316346       8.57941610       3.48583870      -0.46600551       0.27658283       0.33463009
Cd       6.61711243       8.36028999       3.12874475      -0.69427332       0.10089825       0.37312984
Cd       1.84174793       0.95383730      10.21109161      -0.01180081      -0.25788780      -0.25282933
Cd       6.10623688       1.16297809      10.09814406       0.12360504      -0.11018837       0.12250620
Cd      10.32240038       1.30705689      10.10490286      -0.60917099      -0.26413432       0.19125776
Cd       0.10555450       4.67617450      10.01856610       0.11615960       0.05407637       0.14018005
Cd       4.17532935       4.64519852      10.17936347       0.06029852      -0.11573489      -0.31553047
Cd       8.22006557       4.71540085       9.95818213      -0.10100312       0.46548525       0.14673918
Cd      -1.97929250       8.19122784      10.13745698      -0.73508256      -0.20400636      -0.15524580
Cd       1.89351886       8.26330085       9.96237776       0.38767851       0.34838801       0.58611079
Cd       5.99924270       8.49001315      10.09863437       1.26226949      -0.52390346       0.26335025
S       -0.05214143       2.53973944       2.67612870       0.13164920       0.27902697      -0.70858033
S        3.99074275       2.42122012       2.42903304       0.71560274       0.66208201       0.27186178
S        8.19572617       2.33112895       2.58431916      -0.31787512       0.49213372       0.37523273
S       -2.05735007       6.02861873       2.36518205       0.19041621       0.26901805       0.32762157
S        2.11990292       6.23070941       2.73156960       0.59008595      -0.57671460      -0.58471598
S        6.14376368       6.03253809       2.44120760       0.03196845      -0.18571062      -0.24411364
S       -3.88539957       9.72509935       2.54212744       0.31139232      -0.05307707      -0.07921553
S        0.08304353       9.60055294       2.45000094       0.28700514      -0.42827751       0.76162501
S        4.35366505       9.57334804       2.62019882       0.16898554       0.33740113       0.15801059
S       -0.04920408       2.29275027       9.15133077       0.37319413       0.25086056      -0.07504783
S        3.94545655       2.11874640       9.41860964      -0.00269184       0.99198520      -0.22537097
S        8.07247923       2.39587516       9.23748006       0.59530913      -0.60454685      -0.24179458
S       -2.03593668       5.80085615       9.21216457       0.15996019       0.25622588       0.56728725
S        2.22765560       5.96349919       9.14916323      -0.54749268      -0.58029893       1.63201771
S        6.16361799       6.03922067       9.30159449      -0.14850861      -0.16909425      -0.04170143
S       -4.08970397       9.34627154       9.13589064      -0.43546476       0.22017075       0.52302799
S       -0.13124450       9.52408890       9.27713348       0.50790996       0.03585685      -0.09287983
S        4.03128835       9.54893460       9.35327212      -0.74709185       0.65540482      -0.60347809
S        2.18836070       1.22426813       5.84290935      -0.68568182      -0.22048837       0.37680336
S        6.13306594       0.93263514       5.92154124      -0.25885186       0.93170539      -0.17520566
S       10.33183299       1.09723603       5.96664202      -0.58581324      -0.03942467      -0.46300446
S        0.01265076       4.79717208       5.84781476       0.85250211      -0.13961217      -0.21118694
S        4.28956595       4.62130732       5.99829338       0.05591104       0.04932812      -0.33247813
S        8.23308615       4.71580380       5.84799590       0.01386628      -0.48619063      -0.38359292
S       -2.17062082       8.11319302       5.91127763       0.09651990       0.41829177       0.10468379
S        2.06679428       8.32254714       6.05432250      -0.27091797      -0.31358517      -0.42641688
S        6.28166214       8.25496920       5.67394680      -0.73993784       0.25238199       0.33234934
S        1.92953839       1.22214278      12.70319780      -0.01744575      -0.57774913      -0.11448675
S        6.05813614       1.32576264      12.58569893       1.29522449      -0.64823173       0.16726300
S       10.22697996       1.18563638      12.68879209      -0.24473491       0.52121889      -0.22023033
S       -0.03131780       4.83434792      12.64994783       0.80463017      -0.69095638      -0.44557811
S        4.03253351       4.74874118      12.65686438       0.38400272       0.52655549       0.22271485
S        8.22311871       4.75536826      12.49869878       0.15412370       0.98430036       0.13424728
S       -1.89854318       8.38788850      12.63624922      -0.41793857       0.37950430      -0.16848524
S        2.23471304       8.36024350      12.62845035      -0.71842596      -0.05661237      -0.26019827
S        6.17685976       8.66125057      12.71515330       0.81580228      -1.52773193      -0.95557269
