72
Lattice="12.39778545 0.0 0.0 -6.19889272 10.73679715 0.0 0.0 0.0 13.44794642" Properties=species:S:1:pos:R:3:forces:R:3 ref_energy_eV=-265.25870546 ref_gap_eV=2.1088 energy=-238.60586609 stress="-0.00624871645237279 0.0016045676716443073 -0.00013556892990458498 0.0016045676716443073 -0.0023709441397935546 0.0015797837811015948 -0.00013556892990458498 0.0015797837811015948 -0.019174967835106735" free_energy=-238.60586609 pbc="T T T"
Cd      -0.05867072       2.28893344       0.21795020      -0.00957390       0.09041721      -2.17727913
Cd       4.15052962       2.38045508      13.42824343       0.17909594      -0.00624342       0.27623308
Cd       8.36859630       2.28369829       0.14533989      -1.97853707       1.73466129      -1.11576000
Cd      -2.09771571       5.94757599      13.39548275      -0.39764548      -1.41492257       0.12410460
Cd       1.84226424       6.01651750      13.40019922       0.46261421      -0.04686049      -0.53980436
Cd       6.06500117       6.12429926       0.11585365      -0.00728055      -0.77497098      -1.46344536
Cd      -4.11703935       9.54601140      13.41325260      -0.03168870      -0.24560626      -0.00682750
Cd      -0.18105955       9.56983539       0.01787622       0.38610024       0.12623233      -0.67934901
Cd       4.15088619       9.52590632       0.00443688      -0.02607361       0.33985228      -0.50544649
Cd      -0.01189865       2.34588217       6.69090901       1.28253270       0.98577732       0.27644881
Cd       3.99070314       2.40468857       6.74244881       1.10311599       0.56210488       0.32271139
Cd       8.20572616       2.47069389       6.70495284       0.43696976      -0.27513393       0.58453561
Cd      -2.04884630       5.93715131       6.68237253       0.01987261      -0.04064428       0.17282446
Cd       2.13100030       5.92980745       6.78842196      -1.42359429       0.53130537      -0.12626965
Cd       6.00434544       6.05188569       6.75174093       0.46288623      -1.91452019       0.23552349
Cd      -4.17532742       9.63740968       6.60193390      -0.13460468      -0.47235765       0.48441458
Cd      -0.09930179       9.70843402       6.64871326       0.53883240      -1.24829729       0.53324794
Cd       4.14498013       9.47959164       6.60939953      -0.78796935       1.31084899       0.86979338
Cd       2.02634984       1.34021619       3.46324171       0.76957645      -0.69163182      -0.90400106
Cd       6.28569012       1.22518129       3.44229357       0.43409938      -0.71062799      -0.20762445
Cd      10.34468980       1.12996619       3.33928244       0.06075688       0.20133737       0.62123799
Cd      -0.05690509       4.64077571       3.43990280      -0.10921902       1.07982133      -1.35705386
Cd       4.08451842       4.70736049       3.59772131       0.35651549      -0.06506792      -4.11904059
Cd       8.34195173       4.66455041       3.25364000      -0.82361160       0.10752483       0.37433916
Cd      -1.95228931       8.32152521       3.45828695      -0.57681913      -0.29415525      -0.50326140
Cd       2.23879948       8.43418030       3.40945651      -1.09444214      -0.83679455      -0.17540666
Cd       6.19933855       8.35944479       3.35930186       0.11151846      -0.38705885       0.14160893
Cd       2.27059316       1.19218475      10.03518561      -1.68910181      -0.26012573       0.25247058
Cd       5.99922373       1.17562271      10.13962694       1.27811501      -0.37478722       0.03325509
Cd      10.25040229       1.26916211      10.15429273       2.50509715      -1.25357384       0.46553330
Cd       0.14930715       4.88202424      10.14082932      -0.76899548      -0.43837902      -0.90650944
Cd       4.12362953       4.75852165      10.17235413       0.35787787       0.32322688      -2.39938613
Cd       8.26707803       4.76668141      10.07592307       0.55115321      -0.48053603       0.36274706
Cd      -2.21894429       8.33731378       9.95964124       1.19303984       0.55285979       0.78817995
Cd       2.05592043       8.38370716      10.22817575       0.07739067       0.02206804      -1.28859599
Cd       6.20621492       8.36633878      10.08143942      -0.45268828      -0.36931350      -0.41133261
S        0.00100317       2.36671316       2.52928613      -0.11223709      -0.27040439       1.10072253
S        4.30866988       2.28011982       2.60402928      -1.30908260       0.77144316      -0.51498377
S        8.33734490       2.32532002       2.44788907      -0.27965142      -0.20776805       1.94158815
S       -2.22254387       5.89842325       2.39047871       1.47866672       0.60490961       0.84831283
S        2.05587102       5.83477852       2.38108358      -0.00529970       0.34780719       0.95705373
S        6.20423481       5.92710607       2.43488478      -0.37624088      -0.12234535       1.93414515
S       -4.14462771       9.51923308       2.52191249       0.19516926       0.41822902       0.37400518
S       -0.03905847       9.50567991       2.44054582       0.76959388       0.19569795       1.06031361
S        4.13527266       9.55750815       2.43304227       0.57584809      -0.02745349       0.65005076
S       -0.03224887       2.50617095       9.07279422       0.39814122      -0.33991770       1.70971392
S        4.13651510       2.39541735       9.26091418       0.31263007       0.80323291      -0.93914828
S        8.38104387       2.21545767       9.39106126      -2.88594635       1.78800421      -1.53024443
S       -2.06520258       6.10246470       9.21512863       0.26534753      -1.52014013      -0.20275214
S        2.12807963       5.93968959       9.21036160       0.20553321       0.63616248       0.33125300
S        6.25918818       5.87035404       9.21346848      -0.62650099       0.36290415       0.05506745
S       -4.15973330       9.52382693       9.28588567      -0.45100283       0.83570021      -0.80967845
S        0.05126857       9.59426214       9.16985451      -0.47210656      -0.35036027       0.38441651
S        4.12617083       9.51089413       9.24266115       0.05108265       0.28713297      -0.09315487
S        2.10614553       1.28583636       5.88803797      -0.79616469      -0.73684804      -0.00670368
S        6.12531193       1.20907856       5.92829009       0.25118830       1.26396166      -0.17991467
S       10.48987438       1.34911593       5.93934686      -2.43928316      -1.75233661      -1.19904764
S       -0.02175228       4.71179404       5.78057112       0.34575266       0.57640552       1.33554522
S        3.93267382       4.81151237       5.77952071       1.25310577      -0.65711580       3.11307853
S        8.29561135       4.78448226       5.79634247      -0.71531079       0.21451360       0.15339365
S       -2.08451988       8.38140046       5.94714869      -0.18322294      -0.13901678      -0.14449119
S        2.09817667       8.31783970       5.91697499      -0.76524208       0.23835990      -0.27527740
S        6.07346328       8.25198094       6.08030366       1.53691808       1.40989545      -1.67647367
S        2.07954570       1.20518175      12.57155451      -0.36385149      -0.07758625       0.23215693
S        6.27798880       1.24223637      12.61353698      -0.51930546      -0.34424979       0.21722956
S       10.13467857       1.21127284      12.71927159       2.85010773      -1.05165562      -1.08127572
S       -0.14441281       4.71379785      12.50893401       0.46462970      -0.50570792       0.92184579
S        4.10245845       4.67204921      12.39810424      -0.23621133       0.62453627       3.39082160
S        8.16598023       4.84862690      12.65406062      -0.16887301      -0.56412751      -0.14986546
S       -2.06701222       8.14105125      12.68804923      -0.28131120       2.28397207      -1.21962867
S        2.10285764       8.49517197      12.58962653      -0.89614757      -0.70999575       1.01548092
S        6.09692894       8.35412632      12.54377724       0.67396188       0.34773201       0.26362931
