72
Lattice="12.39778545 0.0 0.0 -6.19889272 10.73679715 0.0 0.0 0.0 13.44794642" Properties=species:S:1:pos:R:3:forces:R:3 ref_energy_eV=-267.54140797 ref_gap_eV=2.1904 energy=-240.80137455 stress="-0.003431573896799681 0.0015523129708122625 0.00015527025346043547 0.0015523129708122625 -0.007159125530288103 -0.0016242491472011373 0.00015527025346043547 -0.0016242491472011373 -0.008329038082790629" free_energy=-240.80137455 pbc="T T T"
Cd       0.15866779       2.48111867       0.07760796      -0.56082030      -0.54793639       0.24007035
Cd       4.09357271       2.56744499       0.09549024       0.52801707      -0.94070491      -0.02213516
Cd       8.27887372       2.35989938       0.03432024      -0.78045061       0.47513531       0.05493649
Cd      -2.04064591       5.95423291      13.43867621       0.29081625       0.04192434       0.40587555
Cd       2.05794597       5.95882944      13.43540796       0.43360854       0.02358405      -0.05390036
Cd       6.25014121       5.87311436       0.04118824      -0.59147211       1.01879728       0.25077578
Cd      -3.97571855       9.67574895       0.13558892      -0.17649612      -1.06337268      -0.79918625
Cd      -0.01661805       9.45953627       0.03026380       0.13635836       0.18526068      -0.33947969
Cd       4.16535552       9.42465467      13.40738782      -0.26650269       0.51329279      -0.14801376
Cd      -0.10457910       2.53649006       6.73762530       0.20584465      -0.89477606      -0.67111182
Cd       4.30019972       2.26764323       6.83533861      -1.83501762       0.87604719      -0.45271206
Cd       8.36206757       2.51672769       6.72906380      -0.20341376      -1.73502306       0.58646936
Cd      -2.03779783       5.99057063       6.67993199      -0.27288254       0.57933806       0.14811170
Cd       2.07973700       5.95191741       6.69443412       0.14571592       0.08176429       0.33078296
Cd       6.19585719       5.97647311       6.72430874       0.03431395      -0.27367528      -0.14958040
Cd      -4.12043560       9.58443604       6.75458101      -0.38935163       0.70163157      -0.90804844
Cd      -0.08909123       9.55070360       6.65484162       0.51915111       0.14085459       0.80997252
Cd       4.06763865       9.34356931       6.78795276       0.55033899       0.97715629      -0.01970649
Cd       1.97812147       1.15268644       3.34868094       0.32722300       0.18960424      -1.00401156
Cd       6.21685780       1.12122687       3.25859368       0.00851836       0.91838910       0.58626172
Cd      10.31615004       1.19311456       3.35281161       0.03725940      -0.45527506      -0.09289967
Cd      -0.01352927       4.72351444       3.45390372       0.15490065       1.42657042      -0.32913541
Cd       4.12812986       4.75803517       3.34833116       0.93260701      -0.06565961       0.52096203
Cd       8.27837843       4.76702273       3.38025430       0.04356832       0.23870918       0.05894038
Cd      -2.05978245       8.37701083       3.33628502      -0.05148331      -0.26001308      -0.16121481
Cd       2.08788830       8.30331442       3.36834170       0.17461904      -0.18217142      -0.42163144
Cd       6.14518298       8.29716524       3.59063303       0.01161110       0.30423247      -1.85881643
Cd       2.03930057       1.17973758      10.11730563       0.71957009      -0.18041733      -0.29283679
Cd       6.27382352       1.25798188      10.19503920      -0.61022184      -1.23109814      -0.20821971
Cd      10.31992628       1.20229581      10.07882931       0.48785994       0.15375682       0.49521313
Cd      -0.02451742       4.83114610      10.13475112       0.12209853       0.33975332      -0.43963821
Cd       4.01514705       4.69494758      10.18415161      -0.06895180       0.37823230      -1.28121985
Cd       8.09610972       4.75168232      10.10968051       0.93967528      -0.02127479       0.51309883
Cd      -2.06205999       8.20280490      10.02124628       0.00951157       1.83105871       0.91578993
Cd       2.29958892       8.39409705      10.03811229      -2.49108414      -0.58893047       1.25882028
Cd       6.24066279       8.20955362      10.00318461       0.11696498       0.96632862       0.53930354
S       -0.03142355       2.51246765       2.73261532       0.02698189      -1.51435534      -1.43020813
S        4.12748288       2.41035856       2.57221386       0.04295629      -0.47321794      -0.08563374
S        8.30523358       2.43263978       2.56887191      -0.41963708      -0.33501304      -0.04327249
S       -2.03872754       5.94073342       2.51432798       0.09596987       0.28704222       0.35554858
S        2.17004979       5.79215430       2.48933228      -1.17766286       1.00750433      -0.00222257
S        6.24995307       6.01670711       2.56965337      -0.21823598      -0.31400756       0.09309517
S       -4.12748585       9.55599598       2.53345890      -0.36526524      -0.36649154       0.53936729
S        0.00523671       9.56998989       2.53973519       0.23859791      -0.83945726      -0.03674174
S        4.16249405       9.47845988       2.44008294      -0.01567505       0.26466233       0.76550633
S        0.16945448       2.48875383       9.18470453      -0.83683547      -0.19319591       0.52043059
S        4.34030680       2.44501147       9.23610420      -1.09735724      -0.36851589       0.60497792
S        8.22739551       2.33587858       9.38467469       0.96664964       0.78679507      -0.93217465
S       -2.08118202       6.09004942       9.20260321      -0.29916868      -2.76439137      -0.38502439
S        2.11208177       6.11354475       9.28072973      -0.28302417      -1.26046095      -0.31897818
S        6.15629704       5.91500333       9.25537766      -0.45646278      -0.18782316      -0.33635021
S       -4.01448828       9.53185268       9.13420481      -0.71326601       0.20917699       1.25536943
S       -0.01855297       9.41998599       9.46311172       0.65845698       0.87269487      -1.00159668
S        4.05035942       9.53437969       9.25015367       2.65864799       1.35250628      -0.46564267
S        2.01903713       1.24767209       5.68092762       0.13281035       0.09517115       2.41236942
S        6.17268065       1.26445596       5.96080897       1.72406799      -0.93077857      -1.06830683
S       10.28199042       1.08605624       5.86378877       0.25082925       0.18259773       0.57564932
S       -0.02743580       4.86007651       5.88267842       0.31292805       0.05299392       0.39880593
S        4.12567795       4.77022552       5.89665286       0.21998017      -0.28216525       0.08768449
S        8.34556661       4.70338423       5.95320860      -0.46485584       1.60418418      -0.56394422
S       -2.14318316       8.44989597       5.83748418       0.28696783      -0.72210361      -0.01761208
S        2.12755154       8.35106139       5.87167666      -1.35056661      -0.34413543      -0.21077433
S        6.17309325       8.37365719       5.90387440       0.40882697      -0.11581214       1.49164085
S        2.18261271       1.17845056      12.62772430      -0.35571009       0.58230707      -0.10764330
S        6.21939116       1.11543115      12.60309398      -0.31578393       0.41964845       1.13084514
S       10.25436388       1.25497988      12.74770190       1.51715851      -0.57168216      -0.72783980
S        0.01578753       4.78949592      12.62048567       0.07764018      -0.16104222      -0.02215587
S        4.24450552       4.73963767      12.52376495      -0.44167590       0.70296556       1.15186456
S        8.28971688       4.89141915      12.80077018       0.18257473      -1.28707903      -1.23608376
S       -1.99108620       8.23076148      12.57875024      -0.56034694       0.82415276       0.10648272
S        2.06184279       8.30903499      12.62103462       0.09002103       0.03720556      -0.13013316
S        6.19820205       8.34870928      12.62296883       0.84746058      -0.17097346      -0.42918521
