72
Lattice="12.39778545 0.0 0.0 -6.19889272 10.73679715 0.0 0.0 0.0 13.44794642" Properties=species:S:1:pos:R:3:forces:R:3 ref_energy_eV=-266.49616585 ref_gap_eV=2.164 energy=-239.85722818 stress="-0.011543937035334377 -0.0006890022458627554 -0.0005380016652406267 -0.0006890022458627554 -0.006965309320534058 0.0013556466383309743 -0.0005380016652406267 0.0013556466383309743 -0.003916795039030444" free_energy=-239.85722818 pbc="T T T"
Cd      -0.04539840       2.42058526       0.06897949       0.51659208      -0.08434507      -0.05676632
Cd       4.13747116       2.38830776       0.00570744      -0.54190735       0.11643480      -0.45880646
Cd       8.29515374       2.39077347      13.40937663      -0.48065026      -0.27408504       0.22644823
Cd      -2.13395499       5.94157057      13.38372589       0.74568313       1.03348993       0.52477392
Cd       2.05717310       5.95887174      13.41746436       0.24449612      -0.35788375      -0.11788760
Cd       6.01027524       6.06860599       0.04437715       0.67705463      -0.53358774       0.19130280
Cd      -4.15233349       9.39903410       0.03481243       0.42517961       0.88781961       0.41320695
Cd      -0.00820621       9.73715409       0.01063423       0.50649711      -0.69090828       0.44308409
Cd       4.13296258       9.48181244      13.38659366       0.87421701       0.83290328       0.72385311
Cd      -0.12630672       2.56219094       6.63516405       0.87481211      -0.49167384       0.47476292
Cd       4.19898878       2.28481867       6.69313424      -0.62427398       0.01797243       0.52389707
Cd       8.29372998       2.27437842       6.83456159      -0.06150687       0.34358601      -1.74399180
Cd      -2.16635518       6.04923348       6.59421935      -0.12295109      -1.70173296       0.67947659
Cd       2.04338577       6.04849565       6.68915930       0.63678104      -0.33636773       0.67866406
Cd       6.16134083       5.95566981       6.68287023      -0.52893089      -0.66166389       0.58899860
Cd      -4.16110716       9.53555183       6.74465561      -0.37459118       0.37634535      -0.81227805
Cd      -0.06705881       9.53288621       6.65423619      -0.23101363      -0.26291336       0.68445493
Cd       4.22986008       9.40115032       6.68904728      -0.46470209       1.14854504       0.80502096
Cd       1.98479817       1.24671115       3.30752565       1.11604682      -1.13823372       0.64455678
Cd       6.20545729       1.18005636       3.38316228      -0.77167697      -0.05308336       0.03832104
Cd      10.21012337       1.29543462       3.44130219       0.93005528      -0.62876878      -0.23726177
Cd      -0.04801259       4.78776944       3.35922292       1.52110649      -0.70302653       0.17161990
Cd       4.07833193       4.71343516       3.29953582       0.69879765      -0.43009277       0.55212711
Cd       8.43164865       4.84884206       3.24794896      -2.03033279      -1.25726649       0.44258465
Cd      -1.99346403       8.46591398       3.42488413      -1.50629380      -0.74350516       0.21400011
Cd       2.06259341       8.27690824       3.50663998       0.54132652       0.34353721      -0.22225986
Cd       6.07951104       8.21860603       3.44847358       0.47880192       1.32247758       0.45531746
Cd       2.00595202       1.29185508      10.07209122       0.97342316      -1.14726224       0.42331331
Cd       6.32744202       1.35210011      10.20369403      -0.51928364      -0.64590745      -2.06288040
Cd      10.28392113       1.21946459      10.04127269      -0.16651935       0.16802195       0.45580028
Cd      -0.07486824       4.73970005      10.16547752       0.41844256      -0.23208158      -0.65045889
Cd       4.08762264       4.84945180      10.17663649       0.28313240      -0.64334906      -0.53339463
Cd       8.16237892       4.71046901      10.10411347       0.01735769       0.94925069      -0.09587083
Cd      -1.92059574       8.24732750       9.94357417      -0.62273504       1.11020062       0.70870221
Cd       2.20034105       8.28662729      10.11133636      -0.16914172       0.75368144       0.02809853
Cd       6.32228324       8.34366309      10.22107039      -0.16975971       0.12505335      -0.66445650
S        0.04272711       2.29980176       2.65974977      -1.62069702       1.32581911      -0.85702666
S        4.05692671       2.24177281       2.39978967       0.73543544       0.61338196       1.12663433
S        8.21467048       2.17832113       2.53253596      -0.20252020       1.53261018      -0.81638844
S       -2.01263572       5.86133943       2.70921616       0.65260247       1.93104526      -1.60758165
S        2.20511519       5.97732153       2.41439589      -0.93402586       0.09724152       0.92086498
S        6.26711563       6.05811367       2.54637834      -0.17983943      -1.68523800      -0.31526184
S       -4.12969061       9.54756341       2.56645464      -0.16914372      -0.43604716       0.22000342
S       -0.03166710       9.49300566       2.72925037       1.40959343       0.41349764      -1.12078667
S        4.27076099       9.63560525       2.55033526      -0.85953860      -0.27480429       0.03624586
S        0.00459152       2.22660730       9.29623669      -0.80948420       1.53683328      -0.87996429
S        4.13933889       2.29580853       9.34097586       0.16509064       0.70612126      -0.53330156
S        8.22672026       2.45664640       9.15875982       0.51714735      -0.18881249       1.15768399
S       -2.07659546       5.98059271       9.33439470      -0.35111331      -1.34342728      -0.83010569
S        2.11206175       5.98255100       9.25860799      -0.75063486      -0.33072932       0.01234679
S        6.11228632       6.04005878       9.27080044       0.35233567      -0.57010114      -0.00316334
S       -4.14591330       9.36506287       9.08710848       0.58236905       0.64173068       1.79343951
S       -0.03204344       9.60621112       9.28714238       1.07273740       0.19159735      -0.22338813
S        4.30184484       9.64573349       9.31655614      -0.62714882      -0.83767118      -0.27256187
S        2.04283363       1.12348933       5.84682660      -0.09665779       0.55358027       0.23452262
S        6.21864928       1.12477237       5.87557871       0.23830299       0.29719089       0.06812078
S       10.38532379       1.20885502       5.87160525      -0.48252308      -0.43429296       0.65264758
S        0.09332892       4.90123645       5.91170514      -1.14793384      -0.20702355      -0.28041034
S        4.03472005       4.70194947       6.02553031       0.35573032       0.06269601      -0.89541147
S        8.06888771       4.78969326       5.74814974       1.11641858      -0.76782870       0.48282312
S       -2.19514464       8.28197397       5.96800107       0.73298609       1.27704893      -0.72669974
S        2.09395590       8.38485396       6.10243468      -0.33942693       0.34466246      -0.90670144
S        6.16400883       8.25618965       6.03954092       0.78651731       0.32723114      -1.15682712
S        2.11217500       1.17292788      12.62293562      -0.75622648      -0.08836489       0.09787819
S        6.02896533       1.23630633      12.45286724       1.16339833       0.09459467       2.27640863
S       10.32378013       1.20919656      12.64216658       0.11326772      -0.26749320      -0.28101754
S        0.01392668       4.88239208      12.62288761      -0.23973071      -0.67316554       0.40480115
S        4.14878402       4.75215323      12.64141189      -0.22366320      -0.07091252       0.11133165
S        8.36099702       4.74403074      12.61487075      -1.32383269      -0.00315760       0.01321727
S       -2.00362222       8.52018838      12.68489797       0.02003605      -1.17507331      -0.49013956
S        2.23261385       8.26945787      12.74976320      -1.57557934       0.64394090      -0.91437307
S        6.25828004       8.32162582      12.64655371      -0.41778171       0.25173911       0.06606804
