72
Lattice="12.39778545 0.0 0.0 -6.19889272 10.73679715 0.0 0.0 0.0 13.44794642" Properties=species:S:1:pos:R:3:forces:R:3 ref_energy_eV=-269.84035408 ref_gap_eV=2.2009 energy=-242.95086074 stress="0.0007274697151791069 -1.843833545970065e-05 -0.002236222588375445 -1.843833545970065e-05 -0.0024638859279003155 0.000851710168707013 -0.002236222588375445 0.000851710168707013 0.0008297171876944667" free_energy=-242.95086074 pbc="T T T"
Cd       0.25568771       2.22842139       0.05299499      -0.39181423       0.12733666      -0.27542306
Cd       4.20963327       2.23817502       0.01561293      -0.20281618       0.39170550      -0.20808082
Cd       8.26681247       2.32060431      13.41212593       0.42282835       0.39953540       0.20233977
Cd      -1.96931402       5.82662543      13.34400388       0.58757122      -0.63329032       0.77013100
Cd       2.16259605       5.93612025      13.43660550       0.46433784       0.02449776       0.24389912
Cd       6.38411000       6.02558837       0.13089559      -0.30390533       0.08581117      -0.07363209
Cd      -4.07062725       9.44101240       0.02689092       0.16758418      -0.08879232       0.51804125
Cd      -0.06559414       9.52456218      13.25551478       0.09330444      -0.14889648       0.43567131
Cd       4.17122643       9.69618344       0.04867161       0.34565351      -0.00104525      -0.23990645
Cd      -0.15972302       2.47966030       6.94053154       0.31534404       0.16307426      -0.29989815
Cd       4.05518532       2.38685292       6.74296373       0.20679848      -0.58503956       0.17603867
Cd       8.17279399       2.34372278       6.77367036       0.21576037       0.68266828      -0.24941391
Cd      -2.11248600       5.93182543       6.65392057       0.00956550      -0.91421226      -0.21284195
Cd       2.17362295       5.98084792       6.83560475      -0.22059962      -0.02204546      -0.09781336
Cd       6.13794701       6.06453095       6.55443737       0.53629490      -0.09880627       0.21834813
Cd      -4.15533686       9.62063837       6.74573521       0.59429212      -0.01942307      -0.33986080
Cd       0.00445800       9.51461808       6.71635925      -0.24760257      -0.66475903      -0.18064664
Cd       4.08371176       9.54115515       6.73964155       0.24452371       0.13882770       0.10791405
Cd       1.99307648       1.27560720       3.50005075       0.08499572      -0.01584786      -0.27728642
Cd       6.16300541       1.21825702       3.41620335       0.26885363      -0.07690947      -0.15940204
Cd      10.43080315       1.47553076       3.51186988       0.20851919      -0.05060436      -0.39014384
Cd       0.23069694       4.89964794       3.34820017      -0.35241486       0.31873792      -0.38194304
Cd       4.13076005       4.67294326       3.28338470       0.47446459       0.22907948       0.30027713
Cd       8.40676574       4.67888511       3.24731180      -0.29529944       0.56605583      -0.14944325
Cd      -2.30610209       8.32602769       3.34835967       0.77449372      -0.77984695       0.61380418
Cd       1.95680162       8.60678688       3.26584293      -0.04877168       0.06193295      -0.03220968
Cd       6.03232420       8.54385518       3.45388664       0.42395609      -0.33602256      -0.55567699
Cd       2.07095441       0.98002231      10.09793602       0.14545328      -0.32695285      -0.34203950
Cd       6.02903953       1.16152894       9.95935385       0.04367400       0.50447836       0.10424073
Cd      10.36516239       1.16110226      10.05345438       0.24796985       0.02638103       0.14960394
Cd       0.14953577       4.79163029      10.09355185      -0.14820709       0.26351489       0.53962267
Cd       4.18349509       4.82286084      10.10255552       0.05372617      -0.11319315       0.40007751
Cd       8.14172619       4.64047884      10.04457363       0.80691997       0.11886660       0.31073952
Cd      -2.10105418       8.12085404       9.98037407      -0.33632770      -0.38871852       0.28147577
Cd       1.84909177       8.52460078      10.16642627       0.46839937      -0.07040817       0.11051747
Cd       6.05755537       8.27872576      10.04212960       0.76998046      -0.35568651       0.14347701
S        0.09528864       2.54653530       2.49637470      -0.18873948      -0.22344889       0.34051036
S        4.08582911       2.30083325       2.50685281       0.08541270       0.27607637       0.21119985
S        8.32887746       2.36160266       2.51442467      -0.62450178      -0.45219559      -0.24065376
S       -2.01992171       5.97461940       2.50557202       0.45837523      -0.08017375      -0.21750227
S        2.26569071       6.14306815       2.59300573      -0.34002174       0.19532306      -0.41508952
S        6.25524240       6.04145339       2.69847999      -0.10073033       0.06809944      -0.38792890
S       -4.12140833       9.65666140       2.66866818      -1.30821262       0.16296712      -0.92854944
S       -0.32556615       9.59982649       2.50625047       1.17256521      -0.00326554      -0.45461042
S        4.14661707       9.86826467       2.54656836      -0.42543036      -0.47324156       0.11311353
S        0.17286456       2.42664478       9.44352546      -0.83862212      -0.54243795      -0.53126896
S        3.95219121       2.43213515       9.28871660       0.47495053      -0.12821884      -0.17900108
S        8.23640423       2.28494773       9.27078995      -0.08676877      -0.25234011      -0.00666606
S       -2.00333912       5.72320731       9.13324812      -0.24267644       0.09062831       0.58914715
S        2.14563291       6.12357142       9.43239594      -0.08448581      -0.10245260      -0.62451965
S        6.26163885       5.88263866       9.18647052      -0.51162293       0.51338188      -0.42268531
S       -4.14445805       9.34991733       9.17902197      -0.21047513       0.26049430       0.60770827
S       -0.21154204       9.53883471       9.24407776       0.37827117      -0.10037692      -0.10760898
S        4.10028233       9.45186977       9.28262118      -0.67479987       0.69481641      -0.24382818
S        1.94240537       1.26099592       5.94415073       0.03708489       0.03567442       0.50130341
S        6.22563580       1.09718868       5.93238970      -0.72899958       0.48006473      -0.10752208
S       10.27569600       1.22022808       5.94528103       0.23414410       0.11908804       0.46847191
S        0.09413533       4.80835424       5.79998028      -0.12775892      -0.11543434       0.98564575
S        4.19734143       4.67941744       5.95672026      -0.47790161       0.55125665      -0.60522423
S        8.17647191       4.76419756       5.69388284       0.22887822      -0.30174449       1.14131351
S       -2.12979052       8.20927436       5.93346204       0.16797865       1.32755323      -0.30379642
S        2.10730726       8.38087436       5.85657394      -0.36503505      -0.31800141      -0.08217976
S        6.23361973       8.48663192       5.90434078      -0.57767932      -0.34300869       0.25065754
S        2.17544803       1.01063378      12.55017886       0.33537235       0.20684320       0.47718382
S        6.27131532       1.24855798      12.49938234      -0.26810260      -0.77206206      -0.05118909
S       10.42817568       1.32978239      12.60390516       0.09348355      -0.27558600      -0.11028585
S        0.19257108       4.63941557      12.74464666      -0.33587545       0.21913866      -0.62494482
S        4.29644524       4.69033312      12.67746301      -0.01660030       0.24318920       0.01283945
S        8.38387806       4.75349361      12.58842388      -0.73915944      -0.32229661      -0.11205032
S       -2.11509474       8.08943657      12.59039360       0.42638165       1.34403208      -0.53328971
S        2.21958291       8.35894220      12.67574597      -0.69966855       0.19536060      -0.02829871
S        6.26708861       8.46436219      12.54191658      -0.54653606      -0.58970575       0.45904174
