72
Lattice="12.39778545 0.0 0.0 -6.19889272 10.73679715 0.0 0.0 0.0 13.44794642" Properties=species:S:1:pos:R:3:forces:R:3 ref_energy_eV=-266.55533592 ref_gap_eV=2.203 energy=-239.94205125 stress="-0.01083261510290539 0.0009382219665953074 -0.00039186848806126336 0.0009382219665953074 -0.011237542825340922 0.0001751253365936021 -0.00039186848806126336 0.0001751253365936021 -0.0011063584794508568" free_energy=-239.94205125 pbc="T T T"
Cd       0.08773981       2.23571350      13.27947216      -0.46627784       0.72738227       0.54598283
Cd       4.04509427       2.51219451      13.35861615       0.16332596      -0.21612799       1.12838280
Cd       8.28743036       2.37353371      13.40871352      -0.71444177       0.39685279       0.23024083
Cd      -2.06321001       5.94976017      13.42065919       0.26186825       0.43487630       0.07590640
Cd       2.15411529       6.02023973      13.33408615      -1.21632700      -0.37916203       0.50925420
Cd       6.20848012       5.95041877      13.44127826      -0.52783521       0.02003324       0.20799570
Cd      -4.17634305       9.53433664       0.00400184       0.13639073      -0.10876176      -1.39505898
Cd       0.10763621       9.71378653      13.44177664      -0.45045861      -1.07009381       0.30846587
Cd       4.10009599       9.60202130      13.41037703      -0.18007248      -0.35448234       0.03661061
Cd      -0.02297607       2.21919633       6.62214549       1.02066761       1.78802742       1.35588789
Cd       3.98160137       2.51932610       6.80843317       0.54273237      -0.64486980       0.18745794
Cd       8.37112818       2.20846877       6.60855688      -0.60496489       0.50331610       0.73952485
Cd      -2.10002982       6.11893495       6.60122708       0.14758782      -1.75241578       0.03134715
Cd       1.97797666       5.93840934       6.77175349       1.03295122       0.32100870       0.18923420
Cd       6.19431336       6.04674255       6.75593293       0.32887786      -1.14898170      -0.25165873
Cd      -4.18778688       9.51966298       6.68121694       0.33814173      -0.01979657       0.48373021
Cd       0.04670234       9.58546119       6.77831690      -0.34609366       0.00020811      -0.01508047
Cd       4.06655298       9.37376548       6.67889233       0.12952371       0.88708247       0.49798759
Cd       2.06938237       1.24002094       3.34701716       0.07447077      -0.26854065       0.13125078
Cd       6.17081174       1.07237219       3.45043160      -0.20035520       0.76003980      -0.28745835
Cd      10.20834863       1.22128351       3.26935755       0.42359051       0.36791958       0.40619675
Cd      -0.07977671       4.73055176       3.33539262       0.65337152      -0.01531063       0.27176518
Cd       4.13274010       4.77189895       3.36381042       0.90663692      -0.62514644       0.23421552
Cd       8.17090413       4.91817858       3.27080442       1.96521912      -1.60702167       1.39540563
Cd      -2.00090469       8.41691747       3.34271516      -1.51071409      -0.87129701       0.19717603
Cd       2.17537203       8.31101915       3.23589476      -0.52561762      -0.08303902       0.34950825
Cd       6.27693859       8.23241334       3.51869512       0.10311207       0.44376406      -1.64413593
Cd       2.10637910       1.13750192      10.10341377      -1.63491905      -0.06755388       0.02494580
Cd       5.95980776       1.15611491      10.14352267       1.71710425       0.87106881       0.65698704
Cd      10.33340081       1.18929741      10.08535251      -0.47692601       0.16034316      -0.02070314
Cd      -0.00027665       4.77118131      10.08700580       0.00118382       0.69041024      -0.79017827
Cd       4.09179697       4.88231091       9.90302377      -0.17245005      -1.04017221       0.93629584
Cd       8.26983338       4.73214210      10.06609532       0.16007209       0.25579481      -0.04208580
Cd      -2.00919019       8.44645279      10.03996609       0.03428180      -1.35291773       0.69928434
Cd       2.06508536       8.35129255      10.08711540      -0.17471652       1.22390212      -0.66246021
Cd       6.22463462       8.30222926      10.05967876      -0.03452857       0.61077794       0.43810227
S        0.02546815       2.35876611       2.47253149      -0.46496939      -0.00949147      -0.14889150
S        4.14339420       2.37884370       2.53886403       0.11518583      -0.03658696      -0.06264259
S        8.13264122       2.38432001       2.56628466       0.23773235       0.23041800      -0.35738288
S       -2.08018338       5.92761134       2.52351642       0.16254656       0.47901424       0.04941068
S        2.24859404       5.87473648       2.47151483      -1.61436398       0.85114650      -0.30374751
S        6.31135279       5.91326397       2.52244126      -2.42065627       1.18597592      -0.51370705
S       -4.15699593       9.56485105       2.33670885      -0.06366919      -0.15209433       2.36486237
S       -0.13636485       9.55988528       2.58954248       2.03583780      -0.21691573      -0.96573518
S        4.18308714       9.59985354       2.53454119       0.16637965      -0.50640996      -0.04050915
S       -0.18807496       2.49894305       9.28499017       1.39076228      -0.90190994      -0.61208550
S        4.04683746       2.26819961       9.42399124      -0.17463671       2.24256863      -1.38380956
S        8.24444097       2.37604237       9.28450524      -0.62426222      -0.36984642      -0.10851534
S       -2.04595948       5.92548127       9.06069887      -0.15964306       0.55741933       0.97782989
S        2.12606672       6.12222502       9.26505817      -0.88563774      -1.01688548      -0.25259785
S        6.09174728       6.00212804       9.23822319       1.09408526      -0.25647881       0.01973639
S       -4.03364639       9.51708561       9.31807938      -1.25288104       0.03174762      -0.66413283
S       -0.12596336       9.73191346       9.28434319       1.30627120      -1.53456817      -0.58677049
S        4.14315177       9.59259396       9.28373198       0.06639326      -0.46307253      -0.33916277
S        2.01365445       1.17918689       6.01630166       1.02298756      -0.45989308      -0.81873885
S        6.21884690       1.16006659       5.88389775      -0.52519103       0.39132523       0.69373699
S       10.46322745       1.22387913       5.99378549      -1.72300107      -2.01203467      -1.46362062
S        0.21222343       4.68446030       5.92833703      -1.77586218      -0.41816471      -0.79451251
S        4.13051142       4.76844890       5.88809633       0.15600381       0.52289953       0.21195113
S        8.29181781       4.62888127       5.94995648      -0.21118054       0.86208422      -0.48966484
S       -2.06739643       8.35017378       5.89676797       0.00794076       1.24137175      -0.49968360
S        2.00943673       8.29644266       5.99857498      -0.05597310       0.03860336      -0.97214952
S        6.16406958       8.31341120       5.87495513       0.17350396       0.40200168       0.76116030
S        2.16030754       1.24395157      12.60243947      -0.49888179      -1.04435388      -0.23031487
S        5.96711315       1.20633929      12.66624755       1.34444903       0.64792965      -0.24866195
S       10.30515438       1.22662099      12.61042835      -0.02903681      -0.31150690       0.01132728
S       -0.15249648       4.67132877      12.46299287       0.78695157       0.22584905       1.34472952
S        4.07834277       4.78784836      12.72481443       0.91024572       0.44172614      -1.30773921
S        8.23383659       4.90636027      12.67635839       0.18788996      -1.09791209      -0.69259335
S       -2.04023902       8.38653061      12.66802376       0.13174715      -0.02225068      -0.33642842
S        1.97908720       8.27346634      12.47795438       0.14372556       1.04376219       1.18130244
S        6.11626248       8.28679704      12.68239423       0.13479531       0.59741586      -0.58257168
