72
Lattice="12.39778545 0.0 0.0 -6.19889272 10.73679715 0.0 0.0 0.0 13.44794642" Properties=species:S:1:pos:R:3:forces:R:3 ref_energy_eV=-265.25318345 ref_gap_eV=2.1292 energy=-238.65243377 stress="-0.00934353193377967 0.0041699270937208275 -9.96260823730527e-05 0.0041699270937208275 -0.011309655873615404 0.0004656598781396973 -9.96260823730527e-05 0.0004656598781396973 -0.009121002778522133" free_energy=-238.65243377 pbc="T T T"
Cd      -0.08335341       2.47009145       0.05838453       0.29159391      -0.11480638      -0.11901399
Cd       4.20290772       2.40197946       0.09232177      -0.12335238       0.38079781      -1.05192740
Cd       8.38526072       2.34813313       0.14309919      -0.42465170       0.45341745      -0.30507934
Cd      -1.96518673       6.07071717      13.31889751      -0.89089245      -0.76029221       0.76615414
Cd       2.06137142       5.94092701       0.01051065       0.26420105      -0.44942207      -0.46223728
Cd       6.34244458       6.03279266       0.11704729      -0.59301052      -0.05397043      -1.10651157
Cd      -4.28013948       9.48391396      13.40032590       1.28648732       0.94662270      -0.06420240
Cd      -0.11047505       9.65577883       0.11649122       0.02281830      -0.10487546      -2.61164628
Cd       4.12224234       9.54503393       0.00389063      -1.11784334       0.31965121      -0.28445975
Cd      -0.11656348       2.52182950       6.84138360       0.08063814      -1.54081352       0.28946752
Cd       4.23406398       2.38899932       6.58110411      -1.01553526       0.72185631       0.70677938
Cd       8.22517420       2.34933437       6.50147331      -0.24189784       0.96953006       1.22183303
Cd      -2.22737355       5.89774640       6.78762046       0.44692777       0.57197661      -0.31881383
Cd       2.08511461       5.94684202       6.91194928      -0.06464592       0.38100300      -0.86440912
Cd       6.19242065       6.02917618       6.50622460      -0.08194444      -1.15747411       1.22145111
Cd      -4.14373117       9.54451362       6.72607580      -0.05670413      -0.73241441      -0.60449246
Cd       0.03941424       9.66097255       6.79515628      -0.03248273      -0.74085963      -0.41400754
Cd       4.07835486       9.64534557       6.64102574       0.34078135      -1.10411298       0.76045946
Cd       2.11481945       1.02843206       3.48429823      -0.26217801       0.66356444      -0.08144213
Cd       6.39476428       1.30481214       3.37753364      -2.04102991      -0.99922018      -0.17195570
Cd      10.33344941       1.19226055       3.37671143       1.18887891      -0.95971907      -0.34064597
Cd       0.00102009       4.79350837       3.50426467      -0.08691475      -0.08652693      -0.36112232
Cd       4.11693968       4.76833616       3.29678249       0.04002921       0.70643225      -0.05061334
Cd       8.12503896       4.90945590       3.29707417       1.77792530      -1.12868180       0.50128636
Cd      -2.12443213       8.30882777       3.43960035       0.27876353      -0.17648536      -1.45897634
Cd       1.92184811       8.31389554       3.32247640       0.30074263       0.34183176      -0.22868353
Cd       6.12179747       8.20756936       3.20226360       0.21124885       2.49661871       1.21592414
Cd       1.97420860       1.26509211       9.99373245       2.51500078      -1.47832361       1.21453604
Cd       6.18817639       1.22517947      10.07852942       0.20555608       0.00789683       0.07849382
Cd      10.36662031       1.22370799      10.06984312      -0.24241267      -0.85024188       0.41557344
Cd       0.06313789       4.70607487      10.13379080      -0.44722402      -0.21854620      -0.87183302
Cd       4.18983147       4.83717277       9.90200737       0.57354644      -0.32359832       0.60085899
Cd       8.26363839       4.80167971      10.08624868      -0.18590675      -0.14684018      -0.51055675
Cd      -2.01760841       8.32737398       9.86931125      -1.05370172       0.26963622       0.54487556
Cd       1.91971352       8.48049681      10.22525889       1.06208091      -0.47507630      -0.85897811
Cd       6.21846784       8.23394323       9.86875490      -0.68994049       3.46471554       1.61699665
S       -0.06233675       2.43378958       2.56780549       0.58685848      -0.27601629       0.32640533
S        4.06558341       2.52522222       2.49717351       0.43714280      -1.35102632       0.89003749
S        8.36142666       2.29406359       2.73279202       0.03739336       1.95927714      -1.38023847
S       -2.08540750       5.91211954       2.54227523       0.15597980       0.15049226      -0.33963363
S        2.05482384       5.96489380       2.51725721      -0.26632300      -0.14825812       0.03070112
S        6.28208937       6.05286821       2.55859781      -1.54115791      -1.70924105      -0.72077615
S       -4.09809951       9.50196262       2.50126962      -0.42975216      -0.08397800      -0.00509143
S       -0.06217247       9.56974284       2.37446853      -0.07036030       0.20788471       2.69430703
S        4.12895289       9.45746504       2.44763854      -0.49180312       0.43546435       0.92449466
S        0.05366760       2.22665293       9.43394555      -2.03870323       2.00529079      -1.60989538
S        4.13530341       2.35079919       9.31949303      -0.01210927       0.32257246      -0.93555771
S        8.34327724       2.35327413       9.44256689      -0.69901134       0.48803187      -1.33814220
S       -2.06765077       5.96287624       9.26175347       0.31002136      -0.52660269      -0.20833826
S        2.06002167       5.85047465       9.32510849      -0.13043187       1.00403733       0.02282397
S        6.27142461       6.15461923       9.28741511      -0.11395166      -4.31148537      -1.57745302
S       -4.28864504       9.54275579       9.12012655       1.26012481       0.38108166       1.17707412
S       -0.02079542       9.53323547       9.26922784      -0.02806745       0.71549013      -0.44457699
S        4.13251664       9.54298427       9.25496562      -0.47241285      -0.05131573      -0.08072638
S        2.04923014       1.12545244       6.05968029      -0.23230166       1.22530140      -0.63770835
S        6.18985586       1.21837223       5.87430412      -0.07674506      -0.34441465      -0.31198718
S       10.10910274       1.12325097       5.81050827       1.66726339       0.71834930       0.35886451
S       -0.03803175       4.71968054       6.00969885      -0.00538512       1.23403273      -0.21744566
S        4.14654119       4.94394732       5.75893782      -0.60989897      -0.96532705       0.66149359
S        8.16815269       4.80270755       5.84190896       0.44427016      -0.60316027      -0.05866539
S       -2.06260530       8.45821087       5.76030359       0.28326310      -0.46358585       1.98643326
S        2.06771283       8.42333066       5.80512788      -0.49401644      -0.57903152       0.52660683
S        6.15914208       8.25392827       6.02476041      -0.06242656       2.36006737      -1.28073113
S        2.05938027       1.38575782      12.67063118      -0.03404763      -0.84721416      -0.28299996
S        6.26154419       1.30475620      12.57672148       0.01962253      -0.39871734       0.59113363
S       10.33567537       1.19624251      12.62334780       0.06696802      -0.10696165       0.09791770
S       -0.09693233       4.80372507      12.49248543       0.78100350      -0.36508510       1.21332052
S        4.21650394       4.82751610      12.48659213      -0.07483822       0.06819139       0.67879713
S        8.22235476       4.82251726      12.49162920       0.52973212      -0.35406185       1.51327592
S       -2.06634516       8.26404051      12.46774389      -0.31076595       1.73673407      -0.10094733
S        1.96879908       8.26791295      12.57479076       0.07774956       0.65630559       1.19926369
S        6.09818006       8.45786042      12.76962797       0.30216535      -1.27637142      -1.37511735
