72
Lattice="12.39778545 0.0 0.0 -6.19889272 10.73679715 0.0 0.0 0.0 13.44794642" Properties=species:S:1:pos:R:3:forces:R:3 ref_energy_eV=-267.03635617 ref_gap_eV=2.2012 energy=-240.31353114 stress="-0.00737927630231964 0.0037628073220727404 0.0028843349166414204 0.0037628073220727404 -0.004128032867373619 -0.0016370914516842263 0.0028843349166414204 -0.0016370914516842263 -0.009465753901980793" free_energy=-240.31353114 pbc="T T T"
Cd       0.00132154       2.38668704       0.00396809      -0.07932853       0.19453321      -0.31124879
Cd       4.13703587       2.36042623       0.11151279      -0.65168967       0.16733484      -0.96197925
Cd       8.26144652       2.35989530       0.00926913      -0.36372349       0.78700329       0.29869468
Cd      -1.95522734       6.03007002      13.36028800      -0.64919292      -0.27793450       0.66016713
Cd       2.16261446       5.97853500       0.05526501      -0.50218315      -0.22366388       0.48532372
Cd       6.19402275       5.95237555      13.44291702       0.01698625      -0.04462924      -0.04506557
Cd      -4.14380977       9.52854006      13.40185130       0.65120181       0.20660793       0.26151788
Cd       0.00563455       9.56725179       0.06494202      -0.37367072       0.51808146      -0.52138776
Cd       4.18529661       9.56388237       0.02719417      -0.62554634      -0.17669488       0.27937983
Cd      -0.06672866       2.42948542       6.74662386       0.48363796      -0.05722691       0.00275169
Cd       4.16648328       2.26353340       6.84250112      -0.84441788       0.83274927       0.35130683
Cd       8.44769238       2.23439223       6.65773481      -1.68887168       0.98324911       0.78573358
Cd      -2.08726865       5.96792597       6.72404381      -0.83290671      -0.55057939       0.27024457
Cd       2.17577186       5.81887711       6.70403367      -0.91021730       0.68421657       0.05391585
Cd       6.26114077       5.96474498       6.70585009      -0.47953881       0.38303427      -0.12528134
Cd      -4.32480609       9.62849159       6.85751858       0.31012857      -0.08626390      -1.41960651
Cd       0.00801133       9.60180839       6.52169202      -0.32306581      -0.36664275       0.62637065
Cd       4.12305167       9.53777220       6.69469690      -0.43918948       0.49332308       0.51691543
Cd       2.17506909       1.12375270       3.45467362      -0.41195011       1.00599737      -1.94901265
Cd       6.18007227       1.16829259       3.37288576       0.66054182       0.00335529       0.03596702
Cd      10.29065728       1.40595041       3.38867621       0.48422452      -0.83069654       0.07213220
Cd      -0.00236147       4.68807055       3.38020440      -0.97949117       0.09830432       0.39160431
Cd       4.21199605       4.66034320       3.22638827      -0.78131582       1.17036615       0.92713697
Cd       8.30154505       4.90452417       3.35383029      -0.45583336      -0.54234358       0.31334306
Cd      -2.18074033       8.37680533       3.52209772       0.49435121       0.10615651      -1.47709615
Cd       2.06581280       8.31676784       3.33905113       1.31180221      -0.52703723       0.86677673
Cd       6.35869231       8.36838972       3.17688141      -1.22322590       0.19696499       0.93535214
Cd       2.01201800       1.23717687      10.13902434       0.65826084      -0.13810321      -1.82349361
Cd       6.32937607       1.33097224       9.98898089      -0.69142037      -1.12874536       0.64633656
Cd      10.41309477       1.22390318      10.11098779      -0.27912478      -0.21008682       0.19271959
Cd      -0.00285564       4.76628833      10.09221486      -0.20409433       0.36877288      -0.07920445
Cd       4.05309896       4.91153401      10.06312144      -0.25583987      -0.44427542      -0.11212276
Cd       8.29362708       4.77905460      10.17779517      -0.53339084      -0.08563648      -1.80533842
Cd      -2.11029208       8.32473090      10.02709856       0.17180498       0.53918333       0.07520806
Cd       2.10807276       8.40856810      10.08623119      -0.10948225       0.24297597       0.07481406
Cd       6.08488753       8.27294507      10.26232116       0.50991499       0.34262706      -1.53846461
S       -0.01378472       2.38486232       2.52559588       0.65318479      -0.28237452      -0.14820922
S        4.16268943       2.40450798       2.52795559      -0.13218819      -0.96017658       0.15387050
S        8.37206130       2.50886406       2.53316533      -1.37463791       0.09407689      -0.14170524
S       -2.15651989       6.04293635       2.59371847       1.08736052       0.14981216      -0.86998543
S        1.88450945       5.90114868       2.58967077       1.54536771       0.34967223      -0.23593993
S        6.17697896       5.99389378       2.58801748       0.05058006       0.00815222      -0.65684940
S       -4.13603468       9.66607446       2.55675639       0.74619446      -0.64142217      -1.08177540
S        0.24152027       9.51043309       2.50014026      -1.99781448       0.92638876       0.44957504
S        4.16863802       9.66469413       2.61554825       0.11664902      -0.42171313      -0.24821642
S        0.04761413       2.41139348       9.32198037      -0.35401316       0.20440426      -0.73299783
S        4.18585643       2.36139029       9.40262662      -0.54192064       0.62919467      -0.49971913
S        8.32044361       2.34546289       9.23906060       0.83296179       0.77192027      -0.37067026
S       -2.12945286       5.98397598       9.26309490       0.20166894      -0.36616219      -0.25225097
S        1.94458720       6.04642882       9.19367405       0.37836728      -0.19270172       0.22059596
S        6.06183769       6.05831273       9.19461715       0.78181183      -0.51249612       0.32459049
S       -4.10279963       9.66108882       9.17427364      -0.22169200      -0.53788380       1.50914861
S       -0.01643859       9.52195840       9.22366108       0.11995593       0.45328171      -0.12446390
S        4.26621857       9.59579578       9.23701395      -0.68400643       0.05705619       0.27605497
S        2.12335458       1.21056615       5.70005975      -0.44069419       0.21922696       3.17708008
S        6.15754840       1.29993592       5.96560720       0.86101030      -0.61105950      -0.79621486
S       10.32974880       1.19030560       5.89899172       1.44553949      -0.70661826      -0.53114121
S       -0.11348170       4.80712703       5.94660754       0.84953556      -0.38660068      -0.31525101
S        4.13207106       4.77535459       5.89198911       0.71434348      -0.79012877      -0.56139117
S        8.10494996       4.61153662       5.84645450       0.83042544       0.36866943       0.23537115
S       -2.14457704       8.20828453       5.84018211      -0.02894732       1.35553246       1.43135234
S        2.11649979       8.38064878       6.03879846      -0.64755388      -0.65470716      -0.89174036
S        6.07274787       8.45300760       5.97406838       1.33169719      -1.03062781      -1.17064303
S        2.00819137       1.10128177      12.40961515       0.16062225       0.53425141       2.95709587
S        6.16842219       1.35965431      12.68541464       0.11236065      -1.01485927      -0.59176976
S       10.19844652       1.20752517      12.66400618       1.16495084      -0.25248103      -0.43405449
S        0.04818641       4.91619721      12.58021257       0.18717636      -1.11331597       0.22153438
S        4.05889288       4.78916920      12.60956083       0.72250255      -0.35809986       0.04637218
S        8.28097254       4.83122040      12.48259002      -0.03154073      -0.08681184       2.15943538
S       -2.05374163       8.34453073      12.60474498      -0.12378795       0.69795419      -0.11000506
S        1.89666982       8.23778496      12.70711600       1.21003765       0.99332811      -0.74527328
S        6.25784067       8.41158128      12.58228705      -0.58965106      -0.52695834       1.39377974
