72
Lattice="12.39778545 0.0 0.0 -6.19889272 10.73679715 0.0 0.0 0.0 13.44794642" Properties=species:S:1:pos:R:3:forces:R:3 ref_energy_eV=-267.14471321 ref_gap_eV=2.1683 energy=-240.47107579 stress="-0.001688973203621472 -0.0007142096227996589 0.0005290718694776251 -0.0007142096227996589 -0.011660709236083745 -0.0049074493585320456 0.0005290718694776251 -0.0049074493585320456 -0.005406696426312002" free_energy=-240.47107579 pbc="T T T"
Cd      -0.07462686       2.37238573       0.08997362      -0.04555119      -0.13734262      -1.46105177
Cd       4.21989188       2.38054785       0.03533327      -0.65368464      -0.71960379       0.59253268
Cd       8.05528716       2.47230967       0.07687465       0.69370695       0.29834025      -0.48604133
Cd      -2.07161335       5.97120499      13.42728190       0.82046026       0.44712795       0.24823184
Cd       2.25209294       5.93631094      13.43263983      -0.89863679      -0.16169577       0.08744373
Cd       6.20886104       5.98650160       0.02393170      -0.49978709      -0.69897178       0.62155532
Cd      -4.26448535       9.63402565      13.42423218       0.72065773      -0.33530097       0.38632133
Cd       0.13524540       9.53488110      13.28029047      -0.76191087       0.37919163       0.88294790
Cd       4.05513747       9.42877653      13.29455497       1.26556607       1.12044957       0.77359047
Cd       0.09260650       2.36701798       6.63044974      -0.67297895       0.54816357       1.04231348
Cd       4.12874225       2.37976063       6.71736718      -0.50827248       0.33630287       0.26730705
Cd       8.11004762       2.38597584       6.59085266       0.47287954       0.21718682       0.69519147
Cd      -2.02136742       5.81016903       6.57995310      -0.28826169       2.00689333       1.56954985
Cd       1.97008082       5.88074490       6.64207737       0.16436392      -0.93596987       0.65733048
Cd       6.30406426       5.99825474       6.91378667      -0.07686901      -0.02663873      -2.65801325
Cd      -4.16069363       9.69048542       6.69214959       0.05704444      -0.92047947       0.21756824
Cd       0.09218560       9.43708703       6.77828180      -0.33484845      -0.33547163      -0.45484896
Cd       4.06086419       9.65608623       6.65105764       0.46949369      -0.01352842      -0.70079676
Cd       2.07447910       1.10153172       3.29502269       0.19115519       0.43179935       0.33661483
Cd       6.29431488       1.39535094       3.46230775      -0.38468346      -1.19581056       0.36143900
Cd      10.38996199       1.02351418       3.46646370       0.03281712       1.72597696      -0.36032566
Cd       0.06103926       4.69881411       3.32351916      -0.54883284       0.01708355      -0.47420523
Cd       4.07840067       4.76081632       3.33853258       0.39290639      -0.16854458       0.05274997
Cd       8.34238144       4.56745670       3.48045333      -0.20494146       1.40540974      -0.89597585
Cd      -1.92128908       8.27610931       3.41380168      -0.07427187       1.44675493      -0.22107041
Cd       2.07023857       8.19807685       3.38280080      -0.17442504       1.53832818      -0.08527507
Cd       6.20562956       8.32391200       3.43879361       0.22480943       0.24633123      -0.61949075
Cd       2.12659772       1.05773364      10.01636454      -0.36897804       0.45364372       0.40289656
Cd       6.28715950       1.00160875      10.14309274       0.05259905       2.01309778       0.07864295
Cd      10.33808029       1.08334981      10.17662641      -0.00017102       0.64930161      -0.62257908
Cd       0.02705897       4.59998694      10.09301810      -0.44976924       1.02881145       0.17092802
Cd       3.95309160       4.62963081       9.99167559       0.38731619       1.18519398       0.56868057
Cd       8.28387263       4.73247129      10.15839503       0.13043189      -0.08636449      -0.07541202
Cd      -2.04069712       8.35466380      10.06828720      -0.22986552      -0.51611036       0.24534086
Cd       2.04302134       8.42484294      10.10855922       0.09689163       0.00113586      -0.10846942
Cd       6.17533247       8.32815540      10.07478874      -0.13310711      -0.38933891      -0.01513188
S        0.09525293       2.29194866       2.43178408      -0.62850356       0.48396519       1.43530762
S        4.17892222       2.28718936       2.66264202      -0.34446315       0.72577184      -0.57509709
S        8.25377347       2.40954493       2.51726474       0.89503665      -0.70866623       0.01722913
S       -2.11917677       6.07424829       2.63509753       0.28669840      -1.75661886      -0.92070542
S        2.05569633       5.97428108       2.50365932      -0.01143260      -0.61012051      -0.16751841
S        6.17865551       5.98323729       2.56312802       0.20057221      -0.46579893       0.07804523
S       -4.08753517       9.58338351       2.55686868      -0.07096632      -1.24844683      -0.35264207
S       -0.04383292       9.65720694       2.39799275       0.71270210      -0.16015143       0.70318769
S        4.22434753       9.68252785       2.52872845      -0.51065238      -2.32103833      -0.90616215
S        0.00216044       2.38163269       9.25720685       0.06179130      -1.16362085      -0.56848213
S        4.10523320       2.39771105       9.28961640       0.47107658      -1.26042938      -0.40168893
S        8.27755317       2.37676012       9.25903362      -0.09230830      -0.26745529      -0.24749976
S       -2.11208877       5.97561975       9.29619245       0.53350318      -0.32948399      -0.52658407
S        1.98371814       6.01365528       9.35370165       0.12294379       0.06307093      -0.63276312
S        6.26828685       5.85873608       9.15320366      -0.76399578       0.14277879       2.83876631
S       -4.13581121       9.44390876       9.28793581      -0.15591600       0.16314613      -0.54900871
S       -0.10470537       9.61731984       9.24485639       0.69181796      -1.39478422      -0.27471270
S        4.16061832       9.59434267       9.08258244      -0.20929229      -0.55518380       1.03490399
S        1.99283144       1.23213358       5.87233668       1.14608078      -0.05561691      -0.49955309
S        6.08822365       1.09121527       6.07020089       0.56572471      -0.01627397      -0.87727104
S       10.37854431       1.39726756       5.82448835      -0.80139483      -0.69627549       0.79708435
S       -0.15697133       4.71639347       5.80987017       2.04133262      -0.46604049      -0.25125538
S        4.14593085       4.74916357       5.88502657       0.06536371       0.19204706       0.21129571
S        8.42670875       4.79741903       5.83724144      -2.02484246      -0.61235379       0.73877992
S       -2.08291802       8.39058333       5.86270150       0.15697224      -0.19898788       0.81095515
S        2.11873585       8.16833850       5.96815223      -0.10615734       1.23948644      -0.57617590
S        6.21992216       8.31241042       5.87693198      -0.22690874       0.38243184       0.68521795
S        2.07276250       1.19616284      12.62213977      -0.05190055       0.40815465      -0.26572530
S        6.19585173       1.19969246      12.62420968      -0.06599548      -0.15940996      -0.24554409
S       10.15728302       1.21396424      12.58732693       0.34857633      -0.13938568       0.83882283
S        0.13273516       4.71201908      12.59147038      -0.52500292       0.36972343       0.51354106
S        4.13330005       4.65122047      12.71035184       0.80302789       0.59866705      -0.95797352
S        8.25077748       4.90673187      12.68797029       0.10432772      -0.85884649      -0.29405069
S       -1.94315512       8.45212139      12.56184079      -0.85624479      -0.47384430       0.31768386
S        2.09079273       8.30868969      12.71891496      -0.17938871      -0.76273655      -1.16328685
S        6.22450674       8.23137745      12.66578064      -0.44543469       1.05697446      -0.78760954
