72
Lattice="12.39778545 0.0 0.0 -6.19889272 10.73679715 0.0 0.0 0.0 13.44794642" Properties=species:S:1:pos:R:3:forces:R:3 ref_energy_eV=-269.94613572 ref_gap_eV=2.2308 energy=-243.01409018 stress="0.0012085834950163817 0.0015781988684477502 -0.0009829976355625525 0.0015781988684477502 -0.000683085095483126 -0.0013475871773250133 -0.0009829976355625525 -0.0013475871773250133 -0.003973237711346337" free_energy=-243.01409018 pbc="T T T"
Cd       0.10694646       2.25090113       0.07991765      -0.17096484      -0.18716419      -0.30976127
Cd       4.21985389       2.44164999      13.43039524      -0.22903439       0.32073575      -0.53957492
Cd       8.31529376       2.43450627       0.15113824       0.32189274       0.16183159      -0.49271093
Cd      -1.89298482       5.98522424      13.41078369      -0.31157692       0.14518720       0.18806248
Cd       2.24956540       6.07874250       0.02679597      -0.04139942      -0.05046054      -0.18949318
Cd       6.46606252       6.06705120      13.29628801      -0.73756871       0.31003783       0.46553109
Cd      -4.13204923       9.45095768      13.42081183       0.49494434       0.37238456      -0.38026591
Cd      -0.03524411       9.69559721       0.02632906       0.10085265      -0.45428852       0.19623477
Cd       4.12886400       9.68537675      13.33023224      -0.05355134      -0.15257952      -0.43768880
Cd      -0.16622616       2.36981148       6.76393889       0.42536735      -0.13827145      -0.08195748
Cd       4.13374079       2.42040477       6.84141870      -0.05040537      -0.06589482      -0.29384576
Cd       8.08614214       2.49775566       6.67379717       0.78551782       0.25144061      -0.02645267
Cd      -1.98507805       5.70744312       6.79617470      -0.28860957       0.60913016      -0.21148548
Cd       1.93071978       5.90588221       6.70525703       0.13948157       0.03802175       0.35981090
Cd       6.23051880       6.00042046       6.64964681      -0.75945234       0.23239964       0.31602339
Cd      -4.16300191       9.62047152       6.78784625       0.29123702      -0.31229393      -0.56713633
Cd       0.11909604       9.55981366       6.65583623      -0.67451009      -0.21137542       0.03645740
Cd       3.97804116       9.53726338       6.83173335       0.29986104       0.05477134      -0.37588924
Cd       2.00285530       0.90553331       3.35679906       0.05024997       0.69049049       0.06784046
Cd       6.19293336       1.12084260       3.39110491      -0.13965049       0.30449847       0.18494251
Cd      10.33650379       1.24768422       3.35017030       0.10879628      -0.03165263       0.09668477
Cd       0.08441225       4.90407472       3.26613005      -0.08306974      -0.51690008       0.20677324
Cd       4.12827932       4.56533189       3.44436375      -0.09349155       0.14814124      -0.28878206
Cd       8.14386407       4.82357065       3.33866249       0.14200457       0.11559909      -0.42205490
Cd      -2.10955851       8.13025271       3.42744112       0.41139565       0.79203347       0.49185745
Cd       2.07530573       8.38386413       3.29608293       0.05837586       0.28032158       0.36980837
Cd       6.03097235       8.35808003       3.33711422       0.38226938      -0.16550242       0.15536654
Cd       2.26687692       1.30081773      10.04683987      -0.56716391      -0.09080322      -0.21004271
Cd       6.16551869       1.17478266      10.25701137       0.17906139       0.39743762      -0.71775182
Cd      10.19175419       1.08211787      10.00642584       0.29272855       1.08022034       0.07391225
Cd       0.02755830       4.53116246      10.39328520       0.17452730       0.22142495      -0.66317470
Cd       4.08720930       4.97740200      10.08943517       0.34561538       0.33491859       0.00850226
Cd       8.28297999       4.75815263      10.07566111       0.24742175      -0.03120350       0.08066523
Cd      -2.19911496       8.27122718      10.02016628       0.82839331      -0.26587372      -0.43475300
Cd       1.86459557       8.47374186      10.08935556       0.30062969      -0.69633171      -0.64598867
Cd       6.28550670       8.42958624       9.97524449      -0.42613254      -0.05890022       0.14007944
S        0.04400464       2.48755989       2.55017684       0.03804503      -0.89927129       0.26775773
S        4.08948014       2.18977654       2.39477614      -0.10814215       0.39052183       1.11721901
S        8.21459641       2.40115681       2.54129959       0.08058461       0.02392822       0.88433163
S       -1.99681887       5.90853796       2.56011757      -0.89618434      -0.51411765      -0.74752964
S        2.06557061       6.05948906       2.56348681       1.02457586      -0.49006836      -0.38151444
S        6.08461949       5.96734350       2.40350466       0.03026295      -0.04435727       0.36145971
S       -4.04629970       9.34913805       2.45272227      -0.74237511       0.01676898       0.25285708
S       -0.01260203       9.52143713       2.60776243      -0.40785680      -0.24679610      -0.45734490
S        4.06875303       9.58095012       2.35027514       0.22519895       0.36108503       0.64605516
S        0.01324728       2.28937977       9.26589073      -0.08740018      -0.17467618       0.13675321
S        4.21062814       2.60553314       9.32816225       0.40818883      -0.48312306      -0.03406502
S        8.23390360       2.39739592       9.13230421      -0.21374470       0.06256137       0.77664069
S       -1.88148153       5.84216222       9.30296483      -0.50186727       0.09701595       0.11348077
S        1.94969676       5.89188733       9.23795343      -0.14356125       0.59002487       0.29707929
S        6.32053949       6.06728923       9.17583951      -0.37830360      -0.30000145       0.29671455
S       -4.07748410       9.60705031       9.27231992      -0.09050582       0.45485269      -0.17841803
S       -0.05905678       9.66859073       9.17039363      -0.54257180      -0.23469269       0.15007760
S        4.07597765       9.55098061       9.30861499       0.07427761      -1.02282315      -0.12680567
S        2.06197779       1.25172834       5.89704594      -0.14822128      -0.12822458      -0.02857180
S        6.21523524       1.20588748       5.97349281      -0.98992162      -0.18221355      -0.77370158
S       10.18888993       1.20938070       5.92698927       0.01609077      -0.17619011      -0.31128778
S        0.02379879       4.67500247       5.75849350      -0.27432179      -0.16116320       0.21599497
S        4.06062299       4.80911280       5.97716195       0.38556557      -0.21197657      -0.38219933
S        8.14755278       4.84796658       5.81465696       1.07095612      -0.34592712       0.09820456
S       -2.02164172       8.24089884       5.94486953      -0.24578969       0.13619942       0.28373422
S        2.03808584       8.26386024       5.87972902       0.33735511       0.10309890      -0.34215734
S        6.13140458       8.37699441       5.94725425      -0.04340059       0.53478679      -0.44536524
S        2.18272386       1.19796007      12.51477526      -0.08174454      -0.26417521       0.66279178
S        6.33388452       1.31200676      12.69227753      -0.45323570      -0.25616769      -0.09306332
S       10.26882645       1.32546684      12.51192457       0.59951552      -0.08942157       0.31005808
S        0.12082498       4.67136205      12.82401550       0.44473511       0.34912248       0.06855856
S        4.35424476       4.88974733      12.60747344      -0.63010180      -0.20506877       0.01606617
S        8.36035432       4.76936464      12.69163163       0.83631059      -0.09157773      -0.68056329
S       -1.96905961       8.34838256      12.46365357      -0.14637444       0.06886265       0.86196028
S        2.02808597       8.46377328      12.49827463       0.07831948      -0.22927710       1.03692464
S        6.21748246       8.42043044      12.51703775      -0.27840005       0.13095083      -0.02187507
