72
Lattice="12.39778545 0.0 0.0 -6.19889272 10.73679715 0.0 0.0 0.0 13.44794642" Properties=species:S:1:pos:R:3:forces:R:3 ref_energy_eV=-267.60221836 ref_gap_eV=2.2348 energy=-240.89630216 stress="-0.009469667659002704 -0.0037657237296269005 -5.90547251605483e-06 -0.0037657237296269005 -0.008864197832888514 0.0008412459478574862 -5.90547251605483e-06 0.0008412459478574862 -0.0015241767282689837" free_energy=-240.89630216 pbc="T T T"
Cd      -0.01405066       2.35526591      13.43484839       1.52584711       1.01992145       0.21932434
Cd       4.07675338       2.50960823      13.25837946       0.21207172      -0.10128223       0.51788088
Cd       8.26085316       2.32909830       0.03283316      -0.07061262      -0.17824854      -0.49753486
Cd      -2.00557847       5.93690855      13.37124552      -0.76242383       0.63288857       0.70956301
Cd       2.07486046       5.96440259      13.44458780       0.47961065      -0.09892160       0.16369584
Cd       6.28762386       6.10479265      13.34798003       0.32325910      -0.87669938       0.85815516
Cd      -4.25526041       9.59939283       0.09581258       0.67183388      -0.93004810      -0.21195819
Cd      -0.11510395       9.55096397       0.21301695       1.20263288       0.56731713      -0.63733647
Cd       4.00029729       9.47189819      13.36038388       0.70227487       0.48054278       0.27829137
Cd      -0.02831350       2.39837791       6.66771911       0.77278822      -0.09377582      -0.04821122
Cd       4.29147112       2.42092851       6.59553443      -0.86578675      -0.24620204       0.53958536
Cd       8.34354701       2.54852193       6.75746156      -1.16766487      -0.59796666       0.28638407
Cd      -2.23092080       5.98142234       6.66051827       1.15571901       0.50704209       0.64495164
Cd       2.19971490       5.88842869       6.73321840      -1.14132795       0.44562141       0.00755716
Cd       6.21497706       5.98321281       6.73545144      -0.09346137       0.13883982      -0.11282658
Cd      -3.98485826       9.65719931       6.70695725      -0.41045049      -1.20830929       0.96785352
Cd       0.05844800       9.37478612       6.76722086       0.08695064       0.93629452       0.34773669
Cd       4.09192312       9.60000064       6.72976094       0.25007235      -0.23994307      -0.21430448
Cd       2.11787495       1.18550099       3.31590466       0.00311297       0.27644898      -0.05615559
Cd       6.23111680       1.19423312       3.39758171      -0.44698576       0.18610340       0.01226485
Cd      10.31993620       1.21375090       3.34928771       0.03248185      -0.00382471       0.30636695
Cd       0.01903004       4.74674908       3.38837766      -1.21829174      -0.52882635      -0.12837925
Cd       4.18379015       4.74099877       3.27581472      -0.52559631       0.27154310       0.13374783
Cd       8.18814269       4.81811453       3.36559845       0.60315662      -0.18134973      -0.26406358
Cd      -2.14437484       8.30795766       3.36901248      -0.21922557       1.65186787       0.58263196
Cd       2.17666779       8.32240885       3.28774251      -0.59642746       0.03423916      -0.14048736
Cd       6.15990523       8.40969461       3.44708508       0.13707798      -0.76700984      -0.46160831
Cd       2.20126927       1.23675180      10.15271219      -0.38495287      -0.14515968      -0.12921933
Cd       6.19215441       1.29425240       9.98362578       0.73222439      -0.59383117       0.73541845
Cd      10.36706167       1.12596964       9.98914025       0.07644818       0.47737691       0.62970283
Cd      -0.01109099       4.71163825      10.06296490      -0.53637434      -0.19756953       0.40139577
Cd       4.11730257       4.88572457       9.94889471      -1.38871719      -1.42885703       1.25085160
Cd       8.23183540       4.88759760      10.20723837      -0.64427820      -0.62158727      -0.64778375
Cd      -2.04459324       8.37508111      10.11294608       0.75952221      -0.32495519       0.67095724
Cd       1.99101256       8.20627407      10.07354386       0.16782087       0.84796400      -0.08054822
Cd       6.20515919       8.37887152      10.09690779       0.31983020      -0.09083328      -0.25021710
S       -0.00714404       2.36891485       2.45864851       0.06286958       0.06482763       0.77514620
S        4.17215136       2.42973505       2.46782834      -0.21304021      -0.41095526      -0.16558369
S        8.21454074       2.34808997       2.51761264       0.52324202       0.49758326       0.33333317
S       -2.07056041       6.13443953       2.64627627      -0.20923372      -2.32434481      -0.93555189
S        1.88390692       5.88897830       2.56445789       1.84024550       0.85846863      -0.58718649
S        6.19744516       5.96433913       2.53327318      -0.16988267       0.54067716      -0.36851674
S       -4.28688282       9.55423815       2.53664418       0.89695622      -0.00667063       0.24733697
S       -0.15006081       9.62169680       2.57207091       0.80022293      -0.54596953       1.08427466
S        4.23141185       9.51864406       2.51942569      -0.92102257       0.44973132      -0.39235545
S        0.03226704       2.33979343       9.17672963       0.37914595       0.01589350       0.54054473
S        4.21167996       2.41651934       9.27809864      -0.77666087       0.50935823      -0.62996260
S        8.33516729       2.37956199       9.23340816      -0.25417448       0.49297572       0.58021163
S       -2.15339857       5.96795024       9.43136368       0.70816438       0.08020483      -1.04867696
S        2.00929576       5.90492653       9.30835934      -0.21678883      -0.08613670      -0.75129374
S        5.99438084       5.90039743       9.24069761       2.72809376       1.42941072      -0.54571324
S       -3.97746316       9.53915456       9.38266113      -1.33843863       0.38461674      -0.75749791
S        0.01525511       9.55804435       9.27879403       0.20499788       0.04608143      -0.03015819
S        4.14416039       9.53617156       9.26650651      -0.28250520      -0.67425904      -0.11736527
S        2.12756815       1.06969561       5.85030760      -0.23764322       2.07649848      -0.22513591
S        6.19302324       1.16633054       5.88782549       1.02217147      -0.33502972       0.26538564
S       10.25893723       1.33001194       6.08805533       0.59226538      -1.26135462      -1.37023176
S       -0.06444028       4.73087365       5.82251029       0.22253306       0.57519613       0.97489915
S        4.13730267       4.76977339       5.88863519       0.56550160       0.02058378      -0.49658549
S        8.27206727       4.77201738       5.89396112      -0.84049399       0.37018409      -0.44027009
S       -1.99873935       8.43393325       5.97177107      -0.45104833      -0.94064043      -0.52612663
S        2.02517293       8.35486791       5.81153946       0.93318345      -0.50313189       0.20179414
S        6.35234694       8.33774594       5.82123677      -0.50544682       0.25482768       1.42619496
S        2.09434221       1.08309556      12.68324387      -0.07979368       1.20644296      -0.48416157
S        6.09571216       1.14100137      12.68639782       0.74690947       0.29005979      -0.60961624
S       10.52972687       1.22192278      12.73301876      -2.31972480      -1.14502473      -1.24752059
S       -0.00619306       4.84452963      12.71653695       0.76805828      -1.07641806      -0.82870852
S        4.31779968       4.88730524      12.58353676      -1.19152142      -0.22742069      -0.28798883
S        8.28682033       4.75853658      12.62181097       0.06067873      -0.16647756       0.75333793
S       -1.86586590       8.36312719      12.71649782      -2.00160605      -0.63497969      -0.81020108
S        2.06286325       8.30568897      12.55193463      -0.62366062       0.14780043       0.41335196
S        6.20616769       8.34051871      12.61462748      -0.16471193       1.00858014      -0.32308451
