72
Lattice="12.39778545 0.0 0.0 -6.19889272 10.73679715 0.0 0.0 0.0 13.44794642" Properties=species:S:1:pos:R:3:forces:R:3 ref_energy_eV=-269.57795898 ref_gap_eV=2.2189 energy=-242.69023949 stress="0.0009720124983613793 0.002627676265740202 -0.001620907412007594 0.002627676265740202 -0.0026564473009691295 0.001148423560868877 -0.001620907412007594 0.001148423560868877 0.0016677880486520703" free_energy=-242.69023949 pbc="T T T"
Cd      -0.18921444       2.44403592       0.18506512      -0.29050024       0.30529457      -0.38771310
Cd       3.67617051       2.43896504       0.08268107       0.57189856       0.17671185      -0.06272372
Cd       8.26433706       2.39781423      13.36956843      -0.71533571      -0.30896571       0.09740777
Cd      -1.96783273       6.06403684       0.08808808       0.25234247      -0.37402000      -0.48679367
Cd       2.05124559       6.04269864      13.31707020      -0.12665175      -0.68132998       0.24978879
Cd       6.17706767       5.95283251      13.39259803      -0.03821010      -0.18472208      -0.04043638
Cd      -3.89737198       9.24050346       0.03947241      -0.30471003       0.06055123      -0.42016927
Cd       0.16333358       9.72793559      13.30890084      -0.69043413       0.28941215      -0.07634274
Cd       4.10471231       9.51085473      13.43082248       0.48930340      -0.41714087       0.31484750
Cd      -0.04966695       2.51249976       6.69412119      -0.00673788      -0.71665187       0.09190068
Cd       3.81203970       2.30272346       6.58688000       0.57022110       0.20046445       0.44522495
Cd       8.25336013       2.48706997       6.62580845      -0.73628990       0.26832660       0.44029431
Cd      -1.92804885       5.98515767       6.91408602      -0.53546608      -0.25805579      -0.39513706
Cd       2.05012911       6.14309596       6.85522207       0.65120096       0.13261866      -0.12920226
Cd       6.28764085       5.86601273       6.65957449       0.10173882       0.16213649      -0.11986114
Cd      -4.16270468       9.36787581       6.79148056       0.61214556       0.41420276       0.25324675
Cd      -0.00386253       9.64623146       6.81033525       0.10384451      -0.67929698      -0.41351311
Cd       4.18784076       9.54889466       6.72610888       0.19201613      -0.88260760       0.07812040
Cd       1.94568297       1.18991059       3.18366388       0.40430600      -0.24602346       0.31352961
Cd       6.12740052       1.25539850       3.41806575       0.29762373       0.16008919       0.26460880
Cd      10.29448435       1.08688565       3.52020559      -0.23871837      -0.18019238      -0.19231342
Cd       0.08782864       4.80621666       3.44494712       0.90289061      -0.08143782       0.04532178
Cd       4.15538807       4.82736729       3.44529421      -0.26618653       0.54594505      -0.12391385
Cd       8.43163477       4.78274269       3.07707814       0.41964226       0.15891541       0.45283682
Cd      -1.87898022       8.47119681       3.44359977      -0.05626660      -0.30516699      -0.23560889
Cd       2.03653048       8.46740275       3.17489138       0.48521817       0.12232986       0.65888607
Cd       6.33672722       8.16948701       3.26379347       0.27952755       0.40431914       0.06041993
Cd       1.80542385       1.26929052      10.41342161       0.06569601      -0.16324651      -0.26603070
Cd       6.01047936       1.28336485      10.02986682       0.19404246      -0.55099561       0.17425059
Cd      10.17910169       1.13470015      10.07707045       0.36412578      -0.49869797       0.16907198
Cd      -0.02697628       4.84301198       9.92697860       0.32885259      -0.13353316       0.54509976
Cd       4.39551402       4.69891622       9.99822958      -0.87288919      -0.59045141       0.26402120
Cd       8.34422933       4.63508456      10.31594848      -0.00052712      -0.16430010      -0.63995121
Cd      -2.08355812       8.43045850       9.96081349       0.77995618       0.03973860       0.24975465
Cd       2.20794281       8.26078694      10.13677476      -0.29967762       0.22116575      -0.31999901
Cd       6.30266790       8.12143405      10.02889601      -0.03957348       0.59388126       0.59926406
S       -0.12354505       2.41948720       2.68255574      -0.05132092       0.11971860      -0.04558020
S        4.07861943       2.49637029       2.64529377      -0.29109876      -0.41858283      -0.41417357
S        8.29815587       2.37340498       2.47168589      -0.06854823      -0.41722826       0.28410976
S       -1.72378703       6.03745039       2.50085018      -1.45426564       0.47307862       0.38377678
S        2.09901147       6.13907589       2.40102782       0.19502375      -0.97550684       0.48386803
S        6.27950710       5.86039792       2.44395770      -0.14233335      -0.17490793       0.17779447
S       -3.96568713       9.49541951       2.48769056      -0.27822337      -0.04410110       0.43639348
S        0.05107448       9.69583686       2.39253692      -0.11165513       0.12301212       0.21580143
S        4.33369525       9.44842938       2.50275871      -0.55065768       0.48268845       0.24789606
S       -0.19049830       2.42058408       9.27721108       0.33359095      -0.20631888      -0.14299732
S        3.88234085       2.25682516       9.28949833      -0.17037329       0.49535105      -0.41049291
S        8.18405087       2.30767194       9.28510421      -0.22812851       0.46257277      -0.31001411
S       -2.13085108       6.00984372       9.39072586      -0.04007311      -0.23445051      -0.36078924
S        2.20456590       5.88750747       9.34815962      -0.20525573      -0.04324332      -0.14585014
S        6.36771517       5.83056540       9.22081133       0.40735602      -0.17807206      -0.35744213
S       -4.12176192       9.54693520       9.38499946      -0.64250442       0.57914324      -0.53046732
S        0.10927917       9.50895700       9.22290249      -0.06615501       0.07923048       0.97311906
S        4.25958470       9.38618076       9.25058280      -0.03022952       0.47995267       0.12678512
S        1.90296448       1.01940220       5.77935234      -0.42911692       0.11732471       0.10364325
S        6.11166916       1.19487786       6.05989788      -0.19077676       0.93048709      -0.83572234
S       10.15095816       1.11828112       6.05434509       1.14294591       0.63108676      -0.59076908
S        0.12192249       4.88112546       5.95787638      -0.27284626      -0.32353233      -0.06937500
S        4.14830335       4.77121470       5.95782178      -0.40003940       0.01286291       0.11589821
S        8.37447874       4.81024714       5.73008404       0.33731835       0.08771121       0.12152472
S       -1.97685218       8.26887454       5.90754892      -0.15632097       0.46636823       0.35708417
S        2.06724010       8.46552005       5.88086161      -0.00267962      -0.22819044      -0.44912800
S        6.31243152       8.29675306       5.78509206      -0.86367042      -0.30637415       0.27058819
S        1.72141515       0.98960759      12.93301931       0.47419302       0.15648374      -0.48759591
S        5.86142767       1.35949809      12.59092843       0.74144787      -0.00588897       0.13120406
S       10.23525765       1.07091746      12.66735015       0.17917632       0.75568112      -0.50131479
S        0.00350957       4.79215854      12.54895268      -0.01204242      -0.49557232       0.04030367
S        4.10550359       4.82623090      12.55338042      -0.03461112      -0.54134821       0.00230484
S        8.37143936       4.81103490      12.73280924      -0.20038346       0.06605530       0.37001737
S       -1.83359775       8.27164441      12.48825295      -0.15702163       0.62072427       0.13004968
S        2.07262960       8.35900984      12.62993904       0.10657172       0.43437177      -0.32391533
S        6.21615875       8.30723539      12.66292968       0.28428960       0.18014627      -0.45472186
