72
Lattice="12.39778545 0.0 0.0 -6.19889272 10.73679715 0.0 0.0 0.0 13.44794642" Properties=species:S:1:pos:R:3:forces:R:3 ref_energy_eV=-269.27198307 ref_gap_eV=2.2011 energy=-242.42095621 stress="-0.0010975072892537867 -0.0007637449105885742 -0.0015251350870292267 -0.0007637449105885742 -0.0027633451284474015 0.0013136943472243682 -0.0015251350870292267 0.0013136943472243682 -0.000325789368802154" free_energy=-242.42095621 pbc="T T T"
Cd      -0.07471618       2.30004603      13.27251352       0.69284485      -0.53984773       0.52845799
Cd       4.23912947       2.43791509      13.30775642       0.12535070       0.28807098       0.66717058
Cd       8.25149947       2.27167909      13.40467389       0.01061498      -0.02932632       0.16208487
Cd      -1.85334711       6.00585564       0.07690396      -0.14290142      -0.80744366       0.58033274
Cd       2.24225449       5.73077053      13.38614073      -0.38030684      -0.16647848       0.26076106
Cd       6.36754303       5.79382634       0.16357356      -0.01959956       0.52660791      -0.09276140
Cd      -4.10570747       9.62012547      13.40413731       0.07600382      -0.28653839       0.12593432
Cd       0.07219336       9.42216706      13.44030436       0.10087008       0.32294052       0.04276452
Cd       4.16608519       9.47844270      13.37973507      -0.10737151      -0.39343735       0.12299115
Cd      -0.10460204       2.65384132       6.54891470       0.05554838      -0.67121404       0.24027431
Cd       4.09237539       2.46160540       6.61628690       0.15775895      -0.05208535      -0.08264097
Cd       8.09089527       2.29087294       6.77209413       0.58563198       0.49683634      -0.15158022
Cd      -2.17647277       6.08551656       6.75336719       0.07499210      -0.22922710       0.03304200
Cd       2.13149187       6.20797338       6.78987904       0.12067019      -1.28035827      -0.30812108
Cd       6.13077378       5.98401421       6.87283149       0.42880779       0.17481220      -0.51549012
Cd      -4.21140479       9.49054994       6.73331926      -0.11733611       0.25305237      -0.85226630
Cd      -0.14302835       9.46750448       6.82978111       0.55881251       0.09158302      -0.10708688
Cd       4.06665204       9.53788408       6.93874687       0.17751395       0.09166260      -0.45977487
Cd       2.14098312       1.34557600       3.43454998       0.18142287       0.01478352      -0.19526120
Cd       6.19395791       1.14147658       3.33289843       0.24962226       0.90456661      -0.06629585
Cd      10.22812161       1.12357050       3.31465454       0.25655561       0.42030816       0.33772567
Cd      -0.02918668       4.61129880       3.35256713       0.17214637       0.45432149       0.52215461
Cd       4.16588193       5.02295200       3.27148636       1.24450523      -0.89183362       0.71225841
Cd       8.18153356       4.97189703       3.54174544       0.18424076      -0.41473228      -1.37045443
Cd      -2.05898875       8.35779304       3.19060342      -0.11750664      -0.32013078       0.38060152
Cd       2.07762529       8.16516105       3.25248401      -0.73550449       0.02886593       0.49549689
Cd       6.15025615       8.71908508       3.28921183       0.44801889      -0.31796005       0.32204468
Cd       2.06647491       1.06353044      10.09628824      -0.02724696       0.43149552      -0.41305910
Cd       6.38554703       1.13173046       9.96678519      -1.10814653      -0.47938781       0.05412073
Cd      10.48264318       1.32906528      10.11856423      -0.00866030      -0.12706181      -0.59669134
Cd       0.11630301       4.84604760      10.22376509      -0.16360893      -0.08786574      -0.97822168
Cd       4.17671443       4.65045268       9.90251019       0.00224421      -0.06690404       0.31418118
Cd       8.35639682       4.68825222      10.35604851      -0.10524207       0.40701082      -0.24389746
Cd      -2.22342665       8.37467107      10.11555740      -0.39545474      -0.60062019       0.46405825
Cd       1.83211573       8.22154867      10.10055299       1.22464278      -0.00471305       0.71677069
Cd       5.99883717       8.32016475      10.15831030       0.16061596      -0.11547760       0.17844013
S        0.07007824       2.39811411       2.36861827      -0.41872001      -0.91119523       0.37896840
S        4.24404996       2.52213099       2.49615738      -0.16303173       0.02818806      -0.13907122
S        8.28471692       2.45478646       2.46841293      -0.30941578       0.11936299       0.39976006
S       -2.01839982       5.88691534       2.60611788      -0.21468681       0.42145201      -0.09010421
S        2.10559135       5.79503498       2.51426693      -1.33195426       0.52663511      -0.65727659
S        6.25035166       6.23804232       2.60522790      -0.05961088      -0.15268612      -0.03833981
S       -4.03647898       9.68935076       2.47267377      -0.45307687       0.07773306       0.31643728
S       -0.01139337       9.58842594       2.58150679       0.55693825      -0.82645908      -0.66066244
S        3.95252633       9.48600387       2.48647352       0.53943713       0.60247487      -0.35233796
S        0.06217564       2.52006716       9.12850288       0.18459559      -0.35907635       0.48104854
S        4.17180819       2.29851700       9.13758132       0.03470074      -0.43936931       0.33009002
S        8.28839664       2.38419127       9.31379487       0.74263840       0.41932192      -0.38444911
S       -2.03963153       5.94355688       9.32440987      -0.14964695      -0.01069198       0.00329819
S        2.17382312       5.98280299       9.21755276      -0.21713203      -0.59809654       0.46545045
S        6.22558745       5.89652498       9.31694223       0.55441025       0.29527622       0.48254260
S       -4.25984287       9.44448511       9.14793045      -0.20181319       0.12518042       1.14934485
S       -0.10864297       9.32642060       9.39794203      -0.37469028       1.41429370      -0.83798945
S        3.93543332       9.58921617       9.42086231       0.20655633      -0.05615816       0.08274577
S        2.01448058       1.23600828       5.95302530      -0.29914324      -0.00871335      -0.21845034
S        6.17039561       1.10286308       5.85003232      -0.45649735      -0.04871212       0.30815769
S       10.26000970       1.19223618       5.97669275       0.16453920       0.09499976      -0.45031975
S        0.01866381       5.00628688       5.93215544      -0.11399755       0.07056512      -0.42959011
S        4.18567747       4.86421447       5.86912249      -0.55985971      -0.14128605      -0.14863882
S        8.20057352       4.79053374       5.86969672       0.06841553      -0.28969654       1.65980096
S       -2.11909643       8.43190507       5.81582007      -0.30868960      -0.29338726      -0.14432064
S        2.05847356       8.36191973       5.86237633      -0.28097013       1.25777910      -0.36208693
S        6.09532429       8.35453303       5.87590590      -0.00280418       0.19311193      -0.00392149
S        2.22350532       1.22113320      12.61699620      -0.79341629       0.02620748      -0.41290181
S        6.19052813       1.18340259      12.45958247       0.43576059      -0.73649889       0.46995352
S       10.35721101       1.07383819      12.57372918      -0.47334295       0.05646722       0.09683202
S       -0.02554427       4.60644351      12.62401616       0.78176789       0.89382864       0.28884365
S        4.36474997       4.82135425      12.50115559      -0.25043240      -0.34868351      -0.14195935
S        8.47745828       4.73274218      12.88140004      -0.24953412      -0.22755715      -0.65890323
S       -2.04760560       8.22220404      12.76140885      -0.10687462       1.32246112      -0.87563377
S        2.14322724       8.10349178      12.65805560      -0.36239431       0.65868964      -0.12818874
S        6.27111107       8.29349186      12.76541742       0.02142622      -0.18003507      -0.60619161
