72
Lattice="12.39778545 0.0 0.0 -6.19889272 10.73679715 0.0 0.0 0.0 13.44794642" Properties=species:S:1:pos:R:3:forces:R:3 ref_energy_eV=-267.79999713 ref_gap_eV=2.1308 energy=-241.0610293 stress="-0.0019110891085597846 -0.0032408732923635483 -0.0009623897265646582 -0.0032408732923635483 -0.007658884826239003 0.002259576954875511 -0.0009623897265646582 0.002259576954875511 -0.007116162919857781" free_energy=-241.0610293 pbc="T T T"
Cd      -0.02780643       2.40629780       0.23855339       0.07415276      -0.10452517      -2.91331213
Cd       4.14002715       2.40357259      13.40583955       0.85668105       0.00892308       0.59919374
Cd       8.28323259       2.37082031      13.44781799      -0.65722425       0.55146625      -0.28386369
Cd      -2.09667634       6.19232589       0.04445474      -0.15964909      -2.19891444      -0.23325195
Cd       2.00313859       6.04998055       0.04772219       0.36484328      -0.88053471      -0.23452729
Cd       6.07912950       6.11622960       0.04027539       0.41327576      -1.13845584      -0.33241399
Cd      -4.12837012       9.70244171      13.44069677       0.00543458      -0.86719749       0.08202884
Cd       0.03429036       9.52503460       0.00048883      -0.65445240      -0.23836936       0.13025006
Cd       4.03815678       9.57410842       0.00752372       0.38530317       0.08311404       0.20908527
Cd      -0.05444438       2.43272782       6.50693196       0.48071506      -1.10200072       1.07918613
Cd       4.16608866       2.37986187       6.74781763      -0.15679661      -0.32799993      -0.28162764
Cd       8.13238186       2.31230638       6.58687651       0.60878498      -0.52298838       0.57030529
Cd      -2.07219561       5.96496788       6.72925731       0.17271565      -0.13055470       0.36763997
Cd       2.05528144       5.96517295       6.72052112       0.79339778       0.10156344       0.40231372
Cd       6.22251696       5.89771494       6.73407396      -0.01342244       0.37688984      -0.08440079
Cd      -4.13649365       9.54414954       6.72871590      -0.08268569       0.08816611       0.00391238
Cd       0.01564886       9.33221922       6.72237371       0.39582260       0.98243099      -0.28149494
Cd       4.12921814       9.56480971       6.72879887       0.32339942      -0.53317508       0.09989735
Cd       2.05625932       1.13623369       3.35637948       0.05119780       0.07452375       0.23789390
Cd       6.14187655       1.20513011       3.24299016      -0.26527241      -0.27950328       0.54455444
Cd      10.27228835       1.35630432       3.32829399       0.79365122      -1.10516097       0.64970197
Cd      -0.16607249       4.93528831       3.27410508       0.84897588      -0.66113592       0.89935854
Cd       4.13512221       4.81081898       3.36834641       0.59304235      -0.60819740       0.45400861
Cd       8.15877439       4.65413454       3.40436983       0.23823226       0.10382677      -0.01651421
Cd      -2.12258616       8.15057758       3.49382207       0.49965546       1.25637081      -0.64861355
Cd       2.04971682       8.14893420       3.38800125      -0.24017924       0.39351384      -0.19700874
Cd       6.18643680       8.27973824       3.31898303      -0.05980501       0.33555874      -0.19896801
Cd       2.06278477       1.19290122      10.08657439      -0.30995877       0.16004103      -0.26175535
Cd       6.36419351       1.24213362       9.99990614      -1.20446901      -0.13571664       0.38634325
Cd      10.37750680       1.21948413      10.03350233      -0.02487470       0.64435235       0.55159368
Cd       0.04637479       4.74587564      10.06735256      -0.15951437       0.33104460      -0.24166429
Cd       4.16467860       4.78265497      10.09501902       0.04839760      -0.16183192      -0.06308778
Cd       8.27159764       4.75198166       9.97569055      -1.17050772      -0.50883937       0.50420251
Cd      -2.12175979       8.43781901      10.14121232       0.32971243      -0.26615155      -1.63454722
Cd       2.07570084       8.48596592      10.26599971      -0.13791827      -0.10405689      -1.72696870
Cd       6.20293354       8.44846271      10.17051311      -0.22329445      -0.24627440      -0.36848885
S       -0.02692247       2.51727097       2.49188201       0.15268950      -0.48813722       2.47879803
S        4.09873093       2.40392314       2.53286248      -0.16656058       0.00556225      -0.22593593
S        8.23803560       2.29716502       2.55743806      -0.37543612       0.67792807      -0.51962438
S       -2.12610149       5.99594000       2.51162562      -0.97725616      -0.74093036      -0.30959429
S        2.07480709       5.74259421       2.58073273      -0.59326460       0.90624836      -0.46097807
S        6.20960361       5.87871994       2.47775992      -0.02275603       0.29947003       0.48403648
S       -4.01279921       9.46953738       2.53746800      -0.72882458       0.20048608      -0.22987201
S        0.01186667       9.56088767       2.50543015      -0.17362968      -0.87998093       0.27748726
S        4.00999193       9.46360112       2.51941319       0.59110507       0.40475592       0.27846213
S       -0.02277337       2.40014809       9.24448657       0.37902497       0.03676329      -0.40920730
S        3.99423762       2.42130956       9.16451782       0.94803615      -0.00489159       0.81688022
S        8.31209699       2.34857152       9.19810071       0.22634799       0.53648014      -0.49067985
S       -2.23748586       5.95294181       9.32784663       1.84898381       0.79528770      -0.88716671
S        2.14557073       6.02171303       9.29519784      -0.52154231       0.43217509      -0.09961851
S        6.16805516       6.03891038       9.23114271       0.13218823       0.06290095       0.09847216
S       -4.14054097       9.56311920       9.26734607      -0.24896903       0.04270775      -0.27474830
S       -0.10525285       9.63364707       9.10864268       0.39884991      -0.42797041       1.18119863
S        4.14468438       9.70688352       9.23556198      -0.17434102      -1.37174689       0.17704604
S        2.06700596       1.20355062       5.93211038      -0.00390620      -0.16473122      -0.43876995
S        6.14033284       1.17578225       5.84805386      -0.10995157      -0.81406885      -0.35653304
S       10.39662456       1.13181324       6.00470684      -0.91111472       0.53943660      -1.11691258
S        0.12182393       4.68266436       5.99175579      -0.92026997       1.68369668      -1.13473283
S        4.19950131       4.67653214       5.90367793      -0.34523807       0.83155323      -0.27770749
S        8.29522131       4.63332577       5.91708862       0.16110904       0.96029195      -0.27214440
S       -2.00836828       8.39916911       5.85413341      -0.82105044      -0.68373417       0.73510583
S        2.10540327       8.37480925       5.90408702       0.13766422      -0.53722123      -0.22838549
S        6.21186986       8.37772483       5.82739956       0.00099594      -0.45115089       0.28051529
S        2.27109725       1.21145430      12.56259428      -1.66353752       0.00836603       0.10065479
S        6.16608893       1.07498381      12.60130957       0.30688716       0.64766125      -0.34795900
S       10.25801335       1.18673497      12.63411113       0.85711960       0.11664917      -0.18636644
S        0.03408654       4.75804397      12.57058236      -0.38134255       0.07589743       0.66413038
S        4.23857516       4.68788072      12.60968562      -0.80092461       0.87194534       0.04585908
S        8.08947492       4.79975933      12.49869058       0.60125962      -0.14409815       0.80687317
S       -2.14257586       8.22900322      12.44287958       0.18982879       1.97872536       1.46601546
S        2.05273389       8.35316494      12.62508137      -0.05877193      -0.15620851       0.67686956
S        6.12052552       8.33007825      12.65842582       0.30923102       1.37968030      -0.07042853
