72
Lattice="12.39778545 0.0 0.0 -6.19889272 10.73679715 0.0 0.0 0.0 13.44794642" Properties=species:S:1:pos:R:3:forces:R:3 ref_energy_eV=-268.94780768 ref_gap_eV=2.1769 energy=-242.09168011 stress="0.003067230669953364 -0.0003027761257418543 0.0007294631346052407 -0.0003027761257418543 -0.0012605480468136914 0.001062417824540509 0.0007294631346052407 0.001062417824540509 -0.003979776821868852" free_energy=-242.09168011 pbc="T T T"
Cd      -0.19339993       2.39710410       0.20501193       0.31123050      -0.63558752      -0.89668826
Cd       4.08791213       2.29768919       0.11842329       0.11419152      -0.35729927      -0.55470132
Cd       8.22740543       2.50992851       0.00481168      -0.01217304      -1.02611287       0.01558253
Cd      -2.19439823       6.00665521       0.12413275       0.31638648       0.23590241      -0.39092542
Cd       1.94422369       5.73811696      13.23597733       0.25249400      -0.12025732       0.62336858
Cd       6.24743235       6.10660030      13.41752555      -0.00209505      -0.22579226       0.42244542
Cd      -4.23798372       9.56371295       0.05442707      -0.05311702       0.08026381       0.45042021
Cd      -0.21234462       9.37175050      13.19723124       0.13961526       0.28698424       0.08525537
Cd       3.81400910       9.54849547      13.38609972       0.74060925      -0.06940320       0.13985109
Cd      -0.04085988       2.26266147       6.94869619      -0.05315748       0.08287916      -1.08109199
Cd       4.21438497       2.65196281       6.64166142      -0.42659600      -0.42905697      -0.12303723
Cd       8.12973679       2.30688623       6.69308664      -0.26623339      -0.84435460      -0.33087434
Cd      -2.13884016       5.86372654       6.78563137       0.75683637       0.28741559      -0.32809530
Cd       2.09698406       6.07213539       6.80349401      -0.03976154       0.12560832      -0.72561294
Cd       6.53864914       6.01246071       6.56108509      -1.38523089       0.71092408      -0.11626965
Cd      -3.92909196       9.53972340       6.64892022      -0.85413823       0.23502170       0.47111481
Cd       0.05708003       9.58757827       6.85024526       0.14110816      -0.07957653      -1.04409768
Cd       4.20523163       9.53614407       6.81531207      -0.33188697      -0.25472256      -0.04095363
Cd       2.25314470       1.22654197       3.45973704      -0.50177545       0.09969201       0.06374997
Cd       6.27400217       1.12596910       3.27466882      -0.59368626      -0.03005723      -0.67242452
Cd      10.44320081       1.11179685       3.36311690       0.40130384      -0.11106714       0.43396399
Cd       0.04234600       4.66882795       3.60040108       0.14544613       0.47702497       0.25706610
Cd       4.07468487       5.00617587       3.27322290       0.62780720       0.12484011       0.02881633
Cd       8.56465935       4.43157566       3.38671106      -0.33901738       0.88247291       0.14406922
Cd      -2.19689099       8.29370177       3.39641563      -0.09324102       0.22346370       0.21014910
Cd       1.66571166       8.38952264       3.22324522       1.39309472      -0.59082990       0.50465171
Cd       6.08683702       8.36496082       3.22892523      -0.34449751      -0.56110562       0.27759456
Cd       2.16452775       1.48916735      10.16452433      -0.48947792      -0.50638577      -0.12395513
Cd       6.23716153       1.23353892      10.11697629      -0.21812143       0.19182930      -0.51406583
Cd      10.13892717       1.14322947      10.02147758       0.34078404       0.02452364       0.25944650
Cd      -0.04080737       4.83309805      10.08684079       0.57368362      -0.10586396      -0.09426547
Cd       4.32305206       4.91206354      10.24593605      -0.18297260      -0.42044081      -0.49139986
Cd       8.35026494       4.81494975      10.08596869      -1.17059106      -0.18062343       0.35493786
Cd      -1.93054391       8.32739470       9.90658331      -0.81253246       0.18774963       0.09479816
Cd       2.16607221       8.36452920      10.16934945       0.30399467      -0.34148788      -0.42662354
Cd       6.44565620       8.25289142      10.07212322      -0.03755934       0.34572732      -0.24217690
S        0.02984060       2.45601980       2.58366398       0.20604341      -0.79569370       0.71774347
S        4.11809838       2.57195874       2.55397562       0.59957336      -0.48253254       0.24898211
S        8.37895614       2.16720597       2.51839639      -0.31316378       0.25008740      -0.40583420
S       -1.92512837       5.92634268       2.57906371      -0.36341715      -0.05769453       0.29995003
S        1.92340440       5.93409626       2.48619474       0.13995665       0.35353853      -0.42757065
S        6.52358974       5.89304487       2.54047845      -0.74887105       0.12077573      -0.03260325
S       -4.29558309       9.60868939       2.62774151       0.99197024       0.04500097      -0.38766101
S       -0.18721337       9.49312173       2.27860054      -0.91807657       0.69866744       0.16270980
S        4.01501656       9.56220969       2.45876308      -0.28478917      -0.67218073      -0.00568719
S       -0.15674780       2.42257382       9.32430605       0.49223838      -0.12808722       0.91576302
S        4.18311553       2.50433550       9.15296577       0.37795090       0.10523225       0.42924539
S        8.24064979       2.51394632       9.14896514      -0.31134367      -0.64287416       0.43576351
S       -2.12883669       5.85632964       9.21311063       0.97225990       1.19033335       0.36496935
S        2.23755288       5.95349529       9.22451207      -0.69158186       0.01958590       1.02557229
S        6.24660325       5.98983130       9.08549164       0.42431881      -0.17869953       0.34293307
S       -4.11206338       9.72891854       9.28160371       0.65224495      -0.22004375      -0.34969943
S        0.15525834       9.53019997       9.24190376      -0.20506523       0.29900063       0.74690712
S        4.27496019       9.48826214       9.35389947      -0.28038420       0.02156809      -0.19799080
S        2.06776421       1.21363333       5.97593765       0.18280047       0.34128603      -0.06335670
S        5.98929552       1.11093554       5.66798303       0.48908427       0.20014819       1.22362806
S       10.23196752       1.12881371       5.92497221       0.34281276       0.34031977      -0.10659926
S        0.00404168       4.75936664       6.11202051       0.22855404      -0.29251463      -0.27601530
S        4.15490586       4.95844479       5.80722912       0.43929337       0.26152392       0.03584537
S        8.37956382       4.62222564       5.98174245      -0.10737227      -0.20126545      -1.22838346
S       -1.97315962       8.24503949       6.03930033       0.19197966      -0.00083815      -0.77325179
S        2.05965780       8.42640064       5.77816650      -0.00298686      -0.05494065       0.16671184
S        6.20212105       8.45586456       5.79614304       0.58401606      -0.42703027       0.18839226
S        2.00322147       1.13340261      12.67407049      -0.11568694       0.97978188      -0.00476386
S        6.25333004       1.07783786      12.55421016      -0.31004367       0.37318203       0.67485277
S       10.24352022       1.15253548      12.60518191      -0.07321418       0.25093095      -0.14758414
S       -0.19843071       4.63254370      12.62427046       0.06193142       0.64501814      -0.30834936
S        4.22507156       4.67793383      12.69562378      -0.21746217       0.35848800       0.10482680
S        8.27637482       4.74669862      12.60408899      -0.30339590       0.62873564      -0.24826813
S       -2.33252499       8.37018964      12.49336479       0.48607018      -0.83473333      -0.19362048
S        1.91784517       8.17547814      12.62710112      -0.03244353      -0.06463715      -0.04183370
S        6.21023174       8.42063079      12.52733511      -0.93452436      -0.14173706       0.47425397
